/*--------------------------------*- C++ -*----------------------------------*\
| =========                 |                                                 |
| \\      /  F ield         | OpenFOAM: The Open Source CFD Toolbox           |
|  \\    /   O peration     | Version:  v1806                                 |
|   \\  /    A nd           | Web:      www.OpenFOAM.com                      |
|    \\/     M anipulation  |                                                 |
\*---------------------------------------------------------------------------*/
FoamFile
{
    version     2.0;
    format      ascii;
    class       surfaceScalarField;
    location    "138";
    object      phi;
}
// * * * * * * * * * * * * * * * * * * * * * * * * * * * * * * * * * * * * * //

dimensions      [0 3 -1 0 0 0 0];
oriented        oriented;


internalField   nonuniform List<scalar> 
27900
(
0.00999684
1.58174e-06
1.58174e-06
0.0099923
2.26655e-06
2.26655e-06
0.00998717
2.56864e-06
2.56864e-06
0.00998165
2.75917e-06
2.75916e-06
0.00997583
2.91021e-06
2.91021e-06
0.0099698
3.01506e-06
3.01506e-06
0.00996364
3.07667e-06
3.07667e-06
0.00995742
3.11192e-06
3.11193e-06
0.00995115
3.1343e-06
3.13431e-06
0.00994485
3.1493e-06
3.14932e-06
0.00993854
3.15884e-06
3.15885e-06
0.00993221
3.16447e-06
3.16446e-06
0.00992587
3.16764e-06
3.16762e-06
0.00991953
3.16931e-06
3.16927e-06
0.00991319
3.17002e-06
3.16997e-06
0.00990685
3.17012e-06
3.17011e-06
0.00990051
3.16983e-06
3.16988e-06
0.00989417
3.16919e-06
3.16927e-06
0.00988784
3.16819e-06
3.16826e-06
0.0098815
3.16693e-06
3.16695e-06
0.00987517
3.16559e-06
3.16556e-06
0.00986884
3.1643e-06
3.16423e-06
0.00986252
3.16305e-06
3.16298e-06
0.00985619
3.16179e-06
3.16175e-06
0.00984987
3.16045e-06
3.16043e-06
0.00984356
3.159e-06
3.159e-06
0.00983724
3.15748e-06
3.1575e-06
0.00983093
3.15593e-06
3.15597e-06
0.00982462
3.15438e-06
3.15443e-06
0.00981831
3.15283e-06
3.15289e-06
0.00981201
3.15131e-06
3.15136e-06
0.00980571
3.14978e-06
3.1498e-06
0.00979942
3.14826e-06
3.14824e-06
0.00979312
3.14672e-06
3.14666e-06
0.00978683
3.14516e-06
3.14508e-06
0.00978054
3.14357e-06
3.1435e-06
0.00977426
3.14196e-06
3.14192e-06
0.00976798
3.14032e-06
3.14034e-06
0.0097617
3.13868e-06
3.13875e-06
0.00975543
3.13704e-06
3.13714e-06
0.00974916
3.13541e-06
3.13552e-06
0.00974289
3.1338e-06
3.13389e-06
0.00973663
3.13221e-06
3.13224e-06
0.00973036
3.13064e-06
3.1306e-06
0.00972411
3.12906e-06
3.12896e-06
0.00971785
3.12748e-06
3.12734e-06
0.0097116
3.12588e-06
3.12574e-06
0.00970535
3.12426e-06
3.12415e-06
0.00969911
3.12262e-06
3.12256e-06
0.00969286
3.12096e-06
3.12097e-06
0.00968663
3.11929e-06
3.11937e-06
0.00968039
3.11763e-06
3.11775e-06
0.00967416
3.11596e-06
3.11611e-06
0.00966793
3.11431e-06
3.11446e-06
0.0096617
3.11267e-06
3.11278e-06
0.00965548
3.11104e-06
3.1111e-06
0.00964926
3.10941e-06
3.10941e-06
0.00964305
3.1078e-06
3.10774e-06
0.00963684
3.10618e-06
3.10607e-06
0.00963063
3.10456e-06
3.10443e-06
0.00962442
3.10293e-06
3.1028e-06
0.00961822
3.1013e-06
3.10119e-06
0.00961202
3.09966e-06
3.09959e-06
0.00960582
3.09802e-06
3.09799e-06
0.00959963
3.09637e-06
3.09639e-06
0.00959344
3.09472e-06
3.09478e-06
0.00958725
3.09307e-06
3.09315e-06
0.00958107
3.09142e-06
3.09151e-06
0.00957489
3.08977e-06
3.08986e-06
0.00956872
3.08813e-06
3.0882e-06
0.00956254
3.08648e-06
3.08653e-06
0.00955637
3.08484e-06
3.08485e-06
0.00955021
3.0832e-06
3.08318e-06
0.00954404
3.08155e-06
3.08152e-06
0.00953788
3.07991e-06
3.07986e-06
0.00953173
3.07827e-06
3.07821e-06
0.00952557
3.07662e-06
3.07657e-06
0.00951942
3.07498e-06
3.07494e-06
0.00951328
3.07334e-06
3.07331e-06
0.00950713
3.0717e-06
3.07169e-06
0.00950099
3.07006e-06
3.07007e-06
0.00949486
3.06842e-06
3.06845e-06
0.00948872
3.06679e-06
3.06683e-06
0.00948259
3.06516e-06
3.06521e-06
0.00947647
3.06355e-06
3.0636e-06
0.00947034
3.06197e-06
3.06202e-06
0.00946422
3.06044e-06
3.06047e-06
0.0094581
3.05899e-06
3.059e-06
0.00945199
3.05767e-06
3.05767e-06
0.00944587
3.05657e-06
3.05656e-06
0.00943976
3.05588e-06
3.05586e-06
0.00943365
3.05585e-06
3.05582e-06
0.00942754
3.05711e-06
3.05707e-06
0.00942142
3.06024e-06
3.06019e-06
0.00941528
3.06861e-06
3.06856e-06
0.00940912
3.08034e-06
3.08029e-06
0.00940287
3.12343e-06
3.12338e-06
0.00939659
3.14167e-06
3.14162e-06
0.00938981
3.38832e-06
3.38826e-06
3.06341e-06
3.06333e-06
0.00999983
1.66781e-07
1.58184e-06
0.00999913
7.00019e-07
2.26678e-06
0.00999823
9.05601e-07
2.56912e-06
0.00999722
1.00648e-06
2.75993e-06
0.00999613
1.08677e-06
2.91133e-06
0.00999499
1.14503e-06
3.01654e-06
0.00999381
1.17743e-06
3.07845e-06
0.00999261
1.19363e-06
3.11408e-06
0.0099914
1.20338e-06
3.13685e-06
0.00999019
1.21037e-06
3.15217e-06
0.00998897
1.21522e-06
3.16196e-06
0.00998775
1.21843e-06
3.16786e-06
0.00998653
1.22073e-06
3.17129e-06
0.0099853
1.22255e-06
3.17313e-06
0.00998407
1.22412e-06
3.17399e-06
0.00998284
1.22558e-06
3.17435e-06
0.00998161
1.22701e-06
3.17443e-06
0.00998038
1.2284e-06
3.17413e-06
0.00997914
1.22971e-06
3.17336e-06
0.00997791
1.23099e-06
3.17222e-06
0.00997667
1.23233e-06
3.17094e-06
0.00997543
1.2338e-06
3.16974e-06
0.00997419
1.23535e-06
3.16863e-06
0.00997295
1.2369e-06
3.16755e-06
0.0099717
1.2384e-06
3.16639e-06
0.00997046
1.23983e-06
3.16514e-06
0.00996921
1.24124e-06
3.16382e-06
0.00996796
1.24267e-06
3.16246e-06
0.00996671
1.24413e-06
3.16109e-06
0.00996545
1.24564e-06
3.15973e-06
0.0099642
1.24718e-06
3.15835e-06
0.00996294
1.24874e-06
3.15695e-06
0.00996169
1.25031e-06
3.15554e-06
0.00996043
1.25188e-06
3.15411e-06
0.00995917
1.25345e-06
3.15268e-06
0.0099579
1.25501e-06
3.15124e-06
0.00995664
1.25656e-06
3.1498e-06
0.00995537
1.25811e-06
3.14835e-06
0.00995411
1.25966e-06
3.14689e-06
0.00995284
1.2612e-06
3.14542e-06
0.00995157
1.26274e-06
3.14393e-06
0.00995029
1.26429e-06
3.14245e-06
0.00994902
1.26583e-06
3.14097e-06
0.00994774
1.26738e-06
3.13951e-06
0.00994646
1.26892e-06
3.13807e-06
0.00994518
1.27046e-06
3.13666e-06
0.0099439
1.272e-06
3.13526e-06
0.00994262
1.27353e-06
3.13388e-06
0.00994133
1.27506e-06
3.13248e-06
0.00994005
1.27659e-06
3.13107e-06
0.00993876
1.27813e-06
3.12964e-06
0.00993747
1.27966e-06
3.12817e-06
0.00993618
1.28121e-06
3.12668e-06
0.00993488
1.28275e-06
3.12516e-06
0.00993359
1.2843e-06
3.12364e-06
0.00993229
1.28584e-06
3.12211e-06
0.00993099
1.28738e-06
3.12059e-06
0.00992969
1.28891e-06
3.11909e-06
0.00992839
1.29043e-06
3.11762e-06
0.00992709
1.29194e-06
3.11618e-06
0.00992578
1.29344e-06
3.11477e-06
0.00992447
1.29493e-06
3.11338e-06
0.00992317
1.29641e-06
3.11199e-06
0.00992186
1.29789e-06
3.11062e-06
0.00992054
1.29938e-06
3.10923e-06
0.00991923
1.30086e-06
3.10783e-06
0.00991791
1.30234e-06
3.10642e-06
0.0099166
1.30383e-06
3.10499e-06
0.00991528
1.30531e-06
3.10355e-06
0.00991396
1.30679e-06
3.10209e-06
0.00991263
1.30828e-06
3.10063e-06
0.00991131
1.30976e-06
3.09917e-06
0.00990998
1.31123e-06
3.09771e-06
0.00990866
1.31271e-06
3.09626e-06
0.00990733
1.31417e-06
3.09482e-06
0.009906
1.31564e-06
3.09339e-06
0.00990466
1.31709e-06
3.09198e-06
0.00990333
1.31855e-06
3.09058e-06
0.00990199
1.32e-06
3.08918e-06
0.00990066
1.32144e-06
3.08779e-06
0.00989932
1.32288e-06
3.08641e-06
0.00989798
1.32432e-06
3.08503e-06
0.00989663
1.32576e-06
3.08365e-06
0.00989529
1.32721e-06
3.08228e-06
0.00989394
1.32865e-06
3.08092e-06
0.0098926
1.33012e-06
3.07958e-06
0.00989125
1.3316e-06
3.07828e-06
0.0098899
1.33313e-06
3.07706e-06
0.00988854
1.33474e-06
3.07597e-06
0.00988719
1.33648e-06
3.0751e-06
0.00988583
1.33845e-06
3.07461e-06
0.00988447
1.34077e-06
3.07477e-06
0.00988311
1.34375e-06
3.07618e-06
0.00988174
1.34757e-06
3.0794e-06
0.00988037
1.35343e-06
3.08777e-06
0.00987899
1.36017e-06
3.09937e-06
0.0098776
1.37241e-06
3.14271e-06
0.0098762
1.37733e-06
3.16056e-06
0.0098748
1.37744e-06
3.41584e-06
1.45885e-06
3.08022e-06
0.00999847
1.14518e-07
1.58189e-06
0.00999647
4.3716e-07
2.2666e-06
0.0099942
5.99919e-07
2.56844e-06
0.00999179
6.65726e-07
2.75871e-06
0.00998925
7.10568e-07
2.9096e-06
0.00998664
7.47572e-07
3.01423e-06
0.00998397
7.70662e-07
3.07558e-06
0.00998127
7.8232e-07
3.11076e-06
0.00997855
7.8902e-07
3.13308e-06
0.00997582
7.94032e-07
3.14785e-06
0.00997308
7.97819e-07
3.15716e-06
0.00997033
8.00489e-07
3.1628e-06
0.00996758
8.02442e-07
3.1661e-06
0.00996484
8.04015e-07
3.16779e-06
0.00996209
8.05357e-07
3.16848e-06
0.00995934
8.0656e-07
3.16869e-06
0.00995659
8.07685e-07
3.16863e-06
0.00995384
8.08728e-07
3.16815e-06
0.00995109
8.09669e-07
3.16717e-06
0.00994835
8.10538e-07
3.16587e-06
0.0099456
8.11406e-07
3.16458e-06
0.00994286
8.12309e-07
3.16348e-06
0.00994012
8.13215e-07
3.16255e-06
0.00993738
8.14065e-07
3.16163e-06
0.00993464
8.14831e-07
3.16059e-06
0.00993191
8.15534e-07
3.15938e-06
0.00992918
8.16217e-07
3.15806e-06
0.00992644
8.16915e-07
3.15669e-06
0.00992372
8.17633e-07
3.15533e-06
0.00992099
8.18356e-07
3.154e-06
0.00991826
8.19065e-07
3.15269e-06
0.00991554
8.19747e-07
3.1514e-06
0.00991282
8.20401e-07
3.15012e-06
0.0099101
8.21034e-07
3.14885e-06
0.00990739
8.21656e-07
3.14759e-06
0.00990467
8.22277e-07
3.14634e-06
0.00990196
8.22903e-07
3.14509e-06
0.00989925
8.23534e-07
3.14382e-06
0.00989655
8.24169e-07
3.14251e-06
0.00989384
8.24802e-07
3.14117e-06
0.00989114
8.25429e-07
3.1398e-06
0.00988844
8.26043e-07
3.13841e-06
0.00988574
8.26642e-07
3.13702e-06
0.00988305
8.27223e-07
3.13564e-06
0.00988035
8.27791e-07
3.13428e-06
0.00987766
8.28348e-07
3.13296e-06
0.00987497
8.289e-07
3.13167e-06
0.00987229
8.29453e-07
3.13039e-06
0.0098696
8.30011e-07
3.12912e-06
0.00986692
8.30578e-07
3.12784e-06
0.00986424
8.31154e-07
3.12654e-06
0.00986156
8.31738e-07
3.12522e-06
0.00985889
8.32327e-07
3.12387e-06
0.00985622
8.32917e-07
3.1225e-06
0.00985355
8.33502e-07
3.12112e-06
0.00985088
8.34077e-07
3.11973e-06
0.00984821
8.34641e-07
3.11834e-06
0.00984555
8.35192e-07
3.11697e-06
0.00984289
8.35731e-07
3.11562e-06
0.00984023
8.36259e-07
3.1143e-06
0.00983757
8.3678e-07
3.11299e-06
0.00983492
8.37299e-07
3.11169e-06
0.00983227
8.37818e-07
3.1104e-06
0.00982962
8.38339e-07
3.10911e-06
0.00982697
8.38865e-07
3.10781e-06
0.00982433
8.39395e-07
3.1065e-06
0.00982168
8.3993e-07
3.10517e-06
0.00981904
8.40467e-07
3.10382e-06
0.0098164
8.41005e-07
3.10247e-06
0.00981377
8.41543e-07
3.1011e-06
0.00981114
8.42077e-07
3.09973e-06
0.0098085
8.42609e-07
3.09836e-06
0.00980588
8.43136e-07
3.097e-06
0.00980325
8.43659e-07
3.09564e-06
0.00980062
8.44179e-07
3.09429e-06
0.009798
8.44694e-07
3.09295e-06
0.00979538
8.45208e-07
3.09162e-06
0.00979277
8.45719e-07
3.0903e-06
0.00979015
8.46229e-07
3.08898e-06
0.00978754
8.46739e-07
3.08766e-06
0.00978493
8.47248e-07
3.08634e-06
0.00978232
8.47759e-07
3.08502e-06
0.00977971
8.48271e-07
3.08369e-06
0.00977711
8.48787e-07
3.08237e-06
0.00977451
8.49309e-07
3.08106e-06
0.00977191
8.49844e-07
3.07978e-06
0.00976931
8.50402e-07
3.07853e-06
0.00976671
8.50997e-07
3.07736e-06
0.00976412
8.51658e-07
3.07632e-06
0.00976153
8.52427e-07
3.07551e-06
0.00975894
8.53376e-07
3.07509e-06
0.00975635
8.54607e-07
3.07532e-06
0.00975376
8.56291e-07
3.07682e-06
0.00975117
8.58613e-07
3.08016e-06
0.00974857
8.61861e-07
3.08873e-06
0.00974597
8.6619e-07
3.10064e-06
0.00974332
8.71125e-07
3.14451e-06
0.00974066
8.78918e-07
3.163e-06
0.00973774
8.81437e-07
3.41763e-06
8.95115e-07
3.08114e-06
0.00999847
6.26574e-08
1.58188e-06
0.00999645
1.90765e-07
2.26667e-06
0.00999421
2.72981e-07
2.56864e-06
0.0099918
3.11202e-07
2.75909e-06
0.00998927
3.37217e-07
2.91018e-06
0.00998664
3.60843e-07
3.01505e-06
0.00998395
3.77973e-07
3.07666e-06
0.00998124
3.87956e-07
3.11207e-06
0.0099785
3.93944e-07
3.13451e-06
0.00997574
3.98174e-07
3.14933e-06
0.00997298
4.01193e-07
3.15866e-06
0.00997021
4.03155e-07
3.16431e-06
0.00996745
4.04394e-07
3.16758e-06
0.00996467
4.05228e-07
3.16923e-06
0.0099619
4.05833e-07
3.16987e-06
0.00995913
4.06297e-07
3.17001e-06
0.00995637
4.06684e-07
3.16977e-06
0.0099536
4.07017e-07
3.16898e-06
0.00995083
4.07292e-07
3.1676e-06
0.00994807
4.0752e-07
3.16592e-06
0.00994531
4.07733e-07
3.16434e-06
0.00994255
4.07957e-07
3.16303e-06
0.00993979
4.08192e-07
3.16189e-06
0.00993704
4.08423e-07
3.16069e-06
0.00993429
4.08651e-07
3.15926e-06
0.00993154
4.08892e-07
3.1576e-06
0.00992879
4.09169e-07
3.1558e-06
0.00992604
4.09488e-07
3.15397e-06
0.0099233
4.09838e-07
3.15217e-06
0.00992055
4.10195e-07
3.15042e-06
0.00991781
4.10532e-07
3.14868e-06
0.00991508
4.10837e-07
3.14695e-06
0.00991234
4.1111e-07
3.14521e-06
0.00990961
4.11363e-07
3.14346e-06
0.00990687
4.11614e-07
3.14171e-06
0.00990414
4.11879e-07
3.13996e-06
0.00990142
4.1217e-07
3.13822e-06
0.00989869
4.1249e-07
3.13647e-06
0.00989597
4.12837e-07
3.13471e-06
0.00989325
4.13201e-07
3.13292e-06
0.00989053
4.13569e-07
3.1311e-06
0.00988781
4.1393e-07
3.12925e-06
0.0098851
4.14278e-07
3.12738e-06
0.00988238
4.14607e-07
3.12552e-06
0.00987967
4.14921e-07
3.12366e-06
0.00987696
4.15222e-07
3.12182e-06
0.00987426
4.15517e-07
3.12001e-06
0.00987155
4.15814e-07
3.11822e-06
0.00986885
4.16117e-07
3.11645e-06
0.00986615
4.16429e-07
3.11468e-06
0.00986345
4.16752e-07
3.1129e-06
0.00986075
4.17083e-07
3.11112e-06
0.00985806
4.1742e-07
3.10931e-06
0.00985537
4.17758e-07
3.10749e-06
0.00985268
4.18093e-07
3.10566e-06
0.00984999
4.18424e-07
3.10382e-06
0.0098473
4.18747e-07
3.10197e-06
0.00984462
4.19064e-07
3.10013e-06
0.00984194
4.19374e-07
3.0983e-06
0.00983926
4.19681e-07
3.09648e-06
0.00983658
4.19986e-07
3.09467e-06
0.0098339
4.20293e-07
3.09287e-06
0.00983123
4.20602e-07
3.09107e-06
0.00982856
4.20915e-07
3.08928e-06
0.00982589
4.21231e-07
3.08748e-06
0.00982322
4.2155e-07
3.08568e-06
0.00982055
4.21871e-07
3.08387e-06
0.00981789
4.2219e-07
3.08205e-06
0.00981523
4.22507e-07
3.08023e-06
0.00981257
4.22819e-07
3.07842e-06
0.00980991
4.23127e-07
3.0766e-06
0.00980726
4.2343e-07
3.07479e-06
0.0098046
4.23729e-07
3.07298e-06
0.00980195
4.24025e-07
3.07119e-06
0.0097993
4.24318e-07
3.0694e-06
0.00979665
4.2461e-07
3.06763e-06
0.00979401
4.24902e-07
3.06585e-06
0.00979136
4.25195e-07
3.06409e-06
0.00978872
4.25489e-07
3.06232e-06
0.00978608
4.25785e-07
3.06056e-06
0.00978344
4.26083e-07
3.05879e-06
0.00978081
4.26383e-07
3.05703e-06
0.00977818
4.26686e-07
3.05526e-06
0.00977554
4.26992e-07
3.05349e-06
0.00977291
4.27302e-07
3.05174e-06
0.00977029
4.27619e-07
3.05001e-06
0.00976766
4.27949e-07
3.04832e-06
0.00976504
4.28299e-07
3.04671e-06
0.00976241
4.28687e-07
3.04523e-06
0.00975979
4.29134e-07
3.04398e-06
0.00975717
4.29679e-07
3.04312e-06
0.00975456
4.30375e-07
3.04292e-06
0.00975194
4.31302e-07
3.04399e-06
0.00974932
4.32548e-07
3.04691e-06
0.00974669
4.3422e-07
3.05506e-06
0.00974405
4.36423e-07
3.06656e-06
0.00974137
4.39004e-07
3.10993e-06
0.00973868
4.42582e-07
3.12802e-06
0.00973574
4.43376e-07
3.38122e-06
4.48698e-07
3.04768e-06
0.00999848
-2.61723e-13
1.58189e-06
0.0099964
-4.38317e-13
2.26669e-06
0.00999411
-5.21495e-13
2.56864e-06
0.00999166
-6.39712e-13
2.75902e-06
0.00998909
-5.94427e-13
2.90999e-06
0.00998643
-2.35592e-12
3.01471e-06
0.00998374
-1.95581e-12
3.07607e-06
0.00998101
1.48977e-12
3.11118e-06
0.00997827
2.79297e-12
3.13345e-06
0.00997552
9.21748e-13
3.14824e-06
0.00997277
-1.26728e-12
3.15753e-06
0.00997001
-1.16726e-12
3.16297e-06
0.00996725
2.97711e-12
3.16593e-06
0.00996448
7.7268e-12
3.16732e-06
0.00996172
4.9921e-12
3.16786e-06
0.00995896
-5.84127e-12
3.16804e-06
0.0099562
-1.30241e-11
3.16788e-06
0.00995344
-6.47307e-12
3.16714e-06
0.00995068
8.5841e-12
3.16578e-06
0.00994792
1.76443e-11
3.1641e-06
0.00994517
1.34088e-11
3.16253e-06
0.00994242
1.87066e-12
3.16123e-06
0.00993966
-6.38108e-12
3.1601e-06
0.00993691
-7.18062e-12
3.15888e-06
0.00993416
-4.75752e-12
3.15743e-06
0.00993142
-5.13908e-12
3.15578e-06
0.00992867
-9.44168e-12
3.15405e-06
0.00992593
-1.32449e-11
3.15236e-06
0.00992319
-1.1089e-11
3.15078e-06
0.00992045
-1.33674e-12
3.14927e-06
0.00991771
1.22789e-11
3.14777e-06
0.00991498
2.29359e-11
3.14622e-06
0.00991224
2.48919e-11
3.1446e-06
0.00990951
1.66698e-11
3.14291e-06
0.00990678
1.58786e-12
3.14119e-06
0.00990406
-1.40597e-11
3.13947e-06
0.00990133
-2.40059e-11
3.13776e-06
0.00989861
-2.47034e-11
3.13609e-06
0.00989588
-1.65152e-11
3.13445e-06
0.00989316
-3.06965e-12
3.13282e-06
0.00989045
1.06e-11
3.13119e-06
0.00988773
2.00666e-11
3.12955e-06
0.00988502
2.28901e-11
3.1279e-06
0.00988231
1.90171e-11
3.12623e-06
0.0098796
1.03387e-11
3.12455e-06
0.00987689
-2.11151e-13
3.12287e-06
0.00987418
-9.63793e-12
3.12119e-06
0.00987148
-1.56092e-11
3.11951e-06
0.00986878
-1.68878e-11
3.11784e-06
0.00986608
-1.3518e-11
3.11617e-06
0.00986338
-6.71103e-12
3.1145e-06
0.00986068
1.54546e-12
3.11283e-06
0.00985799
9.08695e-12
3.11115e-06
0.0098553
1.41789e-11
3.10946e-06
0.00985261
1.58961e-11
3.10777e-06
0.00984992
1.4205e-11
3.10608e-06
0.00984724
9.85145e-12
3.10438e-06
0.00984455
4.09686e-12
3.1027e-06
0.00984187
-1.66109e-12
3.10102e-06
0.00983919
-6.28395e-12
3.09934e-06
0.00983651
-9.10434e-12
3.09768e-06
0.00983384
-9.88668e-12
3.09602e-06
0.00983116
-8.76093e-12
3.09437e-06
0.00982849
-6.19197e-12
3.09271e-06
0.00982582
-2.87528e-12
3.09106e-06
0.00982315
4.4429e-13
3.0894e-06
0.00982049
3.0887e-12
3.08774e-06
0.00981782
4.53121e-12
3.08607e-06
0.00981516
4.51874e-12
3.08439e-06
0.0098125
3.15073e-12
3.08271e-06
0.00980985
8.47442e-13
3.08103e-06
0.00980719
-1.80004e-12
3.07934e-06
0.00980454
-4.18373e-12
3.07766e-06
0.00980188
-5.77128e-12
3.07598e-06
0.00979923
-6.18638e-12
3.07431e-06
0.00979659
-5.31714e-12
3.07264e-06
0.00979394
-3.37039e-12
3.07098e-06
0.0097913
-7.77458e-13
3.06932e-06
0.00978865
1.97295e-12
3.06766e-06
0.00978601
4.44259e-12
3.06601e-06
0.00978337
6.29172e-12
3.06436e-06
0.00978074
7.32165e-12
3.06271e-06
0.0097781
7.4769e-12
3.06107e-06
0.00977547
6.78579e-12
3.05943e-06
0.00977284
5.31216e-12
3.05781e-06
0.00977021
3.16631e-12
3.05621e-06
0.00976759
5.64894e-13
3.05466e-06
0.00976496
-2.12866e-12
3.05318e-06
0.00976234
-4.47759e-12
3.05184e-06
0.00975972
-6.10537e-12
3.05072e-06
0.0097571
-6.77075e-12
3.04998e-06
0.00975448
-6.38025e-12
3.04991e-06
0.00975186
-4.94613e-12
3.0511e-06
0.00974923
-2.59241e-12
3.05413e-06
0.00974661
5.5335e-13
3.0624e-06
0.00974397
4.25085e-12
3.074e-06
0.00974129
8.70378e-12
3.11749e-06
0.0097386
1.35249e-11
3.13569e-06
0.00973565
1.95393e-11
3.38916e-06
2.74754e-11
3.05566e-06
0.00999848
-6.26581e-08
1.58189e-06
0.0099964
-1.90766e-07
2.26669e-06
0.00999411
-2.72983e-07
2.56864e-06
0.00999166
-3.11205e-07
2.75902e-06
0.00998909
-3.37218e-07
2.90999e-06
0.00998643
-3.60844e-07
3.01471e-06
0.00998374
-3.77973e-07
3.07607e-06
0.00998101
-3.87954e-07
3.11117e-06
0.00997827
-3.93941e-07
3.13345e-06
0.00997552
-3.98173e-07
3.14825e-06
0.00997277
-4.01194e-07
3.15753e-06
0.00997001
-4.03157e-07
3.16296e-06
0.00996725
-4.04392e-07
3.16594e-06
0.00996448
-4.05221e-07
3.16735e-06
0.00996172
-4.05826e-07
3.16788e-06
0.00995896
-4.06303e-07
3.16803e-06
0.0099562
-4.06699e-07
3.16785e-06
0.00995344
-4.07023e-07
3.16713e-06
0.00995068
-4.07279e-07
3.16578e-06
0.00994792
-4.07498e-07
3.16411e-06
0.00994517
-4.0772e-07
3.16254e-06
0.00994242
-4.07961e-07
3.16124e-06
0.00993966
-4.08203e-07
3.1601e-06
0.00993691
-4.08427e-07
3.15888e-06
0.00993416
-4.08644e-07
3.15743e-06
0.00993142
-4.08884e-07
3.15577e-06
0.00992867
-4.09172e-07
3.15404e-06
0.00992593
-4.09507e-07
3.15235e-06
0.00992319
-4.09864e-07
3.15077e-06
0.00992045
-4.10211e-07
3.14927e-06
0.00991771
-4.10528e-07
3.14777e-06
0.00991498
-4.10813e-07
3.14623e-06
0.00991224
-4.11078e-07
3.14461e-06
0.00990951
-4.1134e-07
3.14293e-06
0.00990678
-4.11611e-07
3.1412e-06
0.00990406
-4.11898e-07
3.13947e-06
0.00990133
-4.12203e-07
3.13776e-06
0.00989861
-4.12523e-07
3.13609e-06
0.00989588
-4.12856e-07
3.13444e-06
0.00989316
-4.13198e-07
3.13281e-06
0.00989045
-4.13545e-07
3.13118e-06
0.00988773
-4.13894e-07
3.12955e-06
0.00988502
-4.1424e-07
3.1279e-06
0.00988231
-4.14579e-07
3.12623e-06
0.0098796
-4.14909e-07
3.12456e-06
0.00987689
-4.15229e-07
3.12288e-06
0.00987418
-4.15539e-07
3.1212e-06
0.00987148
-4.15843e-07
3.11952e-06
0.00986878
-4.16145e-07
3.11784e-06
0.00986608
-4.16448e-07
3.11617e-06
0.00986338
-4.16758e-07
3.11449e-06
0.00986068
-4.17074e-07
3.11282e-06
0.00985799
-4.17399e-07
3.11114e-06
0.0098553
-4.1773e-07
3.10945e-06
0.00985261
-4.18065e-07
3.10777e-06
0.00984992
-4.18401e-07
3.10608e-06
0.00984724
-4.18734e-07
3.10439e-06
0.00984455
-4.19062e-07
3.10271e-06
0.00984187
-4.19384e-07
3.10103e-06
0.00983919
-4.19698e-07
3.09935e-06
0.00983651
-4.20007e-07
3.09768e-06
0.00983384
-4.20312e-07
3.09602e-06
0.00983116
-4.20616e-07
3.09436e-06
0.00982849
-4.20922e-07
3.09271e-06
0.00982582
-4.2123e-07
3.09105e-06
0.00982315
-4.21542e-07
3.08939e-06
0.00982049
-4.21857e-07
3.08773e-06
0.00981782
-4.22175e-07
3.08606e-06
0.00981516
-4.22493e-07
3.08438e-06
0.0098125
-4.2281e-07
3.08271e-06
0.00980985
-4.23125e-07
3.08103e-06
0.00980719
-4.23435e-07
3.07935e-06
0.00980454
-4.23741e-07
3.07767e-06
0.00980188
-4.24041e-07
3.07599e-06
0.00979923
-4.24337e-07
3.07432e-06
0.00979659
-4.24629e-07
3.07265e-06
0.00979394
-4.24917e-07
3.07099e-06
0.0097913
-4.25205e-07
3.06933e-06
0.00978865
-4.25493e-07
3.06767e-06
0.00978601
-4.25783e-07
3.06602e-06
0.00978337
-4.26075e-07
3.06437e-06
0.00978074
-4.26372e-07
3.06272e-06
0.0097781
-4.26672e-07
3.06107e-06
0.00977547
-4.26977e-07
3.05943e-06
0.00977284
-4.27289e-07
3.05781e-06
0.00977021
-4.27609e-07
3.05621e-06
0.00976759
-4.27942e-07
3.05465e-06
0.00976496
-4.28297e-07
3.05317e-06
0.00976234
-4.28688e-07
3.05183e-06
0.00975972
-4.29138e-07
3.05071e-06
0.0097571
-4.29685e-07
3.04998e-06
0.00975448
-4.30381e-07
3.0499e-06
0.00975186
-4.31306e-07
3.05109e-06
0.00974923
-4.32548e-07
3.05413e-06
0.00974661
-4.34217e-07
3.06239e-06
0.00974397
-4.36414e-07
3.074e-06
0.00974129
-4.38988e-07
3.11749e-06
0.0097386
-4.42556e-07
3.13569e-06
0.00973565
-4.43339e-07
3.38916e-06
-4.48637e-07
3.05566e-06
0.00999847
-1.14518e-07
1.58188e-06
0.00999645
-4.37161e-07
2.26667e-06
0.00999421
-5.9992e-07
2.56864e-06
0.0099918
-6.65728e-07
2.75909e-06
0.00998927
-7.10569e-07
2.91018e-06
0.00998664
-7.47573e-07
3.01505e-06
0.00998395
-7.70666e-07
3.07667e-06
0.00998124
-7.82325e-07
3.11207e-06
0.0099785
-7.89019e-07
3.13452e-06
0.00997574
-7.94024e-07
3.14933e-06
0.00997298
-7.9781e-07
3.15865e-06
0.00997021
-8.00486e-07
3.16429e-06
0.00996745
-8.02447e-07
3.16759e-06
0.00996467
-8.04021e-07
3.16927e-06
0.0099619
-8.05359e-07
3.16989e-06
0.00995913
-8.06558e-07
3.16999e-06
0.00995637
-8.07681e-07
3.16973e-06
0.0099536
-8.08721e-07
3.16895e-06
0.00995083
-8.09659e-07
3.16761e-06
0.00994807
-8.10532e-07
3.16594e-06
0.00994531
-8.1141e-07
3.16435e-06
0.00994255
-8.12324e-07
3.16302e-06
0.00993979
-8.13229e-07
3.16188e-06
0.00993704
-8.14067e-07
3.16069e-06
0.00993429
-8.14818e-07
3.15928e-06
0.00993154
-8.15517e-07
3.15762e-06
0.00992879
-8.1621e-07
3.15581e-06
0.00992604
-8.16925e-07
3.15396e-06
0.0099233
-8.17653e-07
3.15215e-06
0.00992055
-8.18375e-07
3.15039e-06
0.00991781
-8.19071e-07
3.14867e-06
0.00991508
-8.19738e-07
3.14695e-06
0.00991234
-8.20382e-07
3.14521e-06
0.00990961
-8.21017e-07
3.14347e-06
0.00990687
-8.21649e-07
3.14172e-06
0.00990414
-8.22283e-07
3.13997e-06
0.00990142
-8.22916e-07
3.13822e-06
0.00989869
-8.23547e-07
3.13647e-06
0.00989597
-8.24174e-07
3.13469e-06
0.00989325
-8.24794e-07
3.1329e-06
0.00989053
-8.2541e-07
3.13108e-06
0.00988781
-8.26019e-07
3.12924e-06
0.0098851
-8.26621e-07
3.12738e-06
0.00988238
-8.27214e-07
3.12553e-06
0.00987967
-8.27795e-07
3.12368e-06
0.00987696
-8.28364e-07
3.12184e-06
0.00987426
-8.28924e-07
3.12003e-06
0.00987155
-8.29477e-07
3.11824e-06
0.00986885
-8.30029e-07
3.11645e-06
0.00986615
-8.30584e-07
3.11467e-06
0.00986345
-8.31148e-07
3.11289e-06
0.00986075
-8.31721e-07
3.1111e-06
0.00985806
-8.32303e-07
3.10929e-06
0.00985537
-8.3289e-07
3.10748e-06
0.00985268
-8.33479e-07
3.10565e-06
0.00984999
-8.34063e-07
3.10382e-06
0.0098473
-8.34638e-07
3.10198e-06
0.00984462
-8.352e-07
3.10015e-06
0.00984194
-8.35747e-07
3.09832e-06
0.00983926
-8.3628e-07
3.0965e-06
0.00983658
-8.36802e-07
3.09469e-06
0.0098339
-8.37317e-07
3.09288e-06
0.00983123
-8.37828e-07
3.09107e-06
0.00982856
-8.38341e-07
3.08927e-06
0.00982589
-8.38857e-07
3.08746e-06
0.00982322
-8.39381e-07
3.08566e-06
0.00982055
-8.39911e-07
3.08385e-06
0.00981789
-8.40447e-07
3.08203e-06
0.00981523
-8.40988e-07
3.08022e-06
0.00981257
-8.41531e-07
3.0784e-06
0.00980991
-8.42073e-07
3.07659e-06
0.00980726
-8.42612e-07
3.07479e-06
0.0098046
-8.43147e-07
3.07299e-06
0.00980195
-8.43676e-07
3.0712e-06
0.0097993
-8.44198e-07
3.06942e-06
0.00979665
-8.44714e-07
3.06764e-06
0.00979401
-8.45225e-07
3.06587e-06
0.00979136
-8.45732e-07
3.0641e-06
0.00978872
-8.46237e-07
3.06233e-06
0.00978608
-8.4674e-07
3.06056e-06
0.00978344
-8.47244e-07
3.05879e-06
0.00978081
-8.4775e-07
3.05702e-06
0.00977818
-8.48259e-07
3.05525e-06
0.00977554
-8.48773e-07
3.05349e-06
0.00977291
-8.49296e-07
3.05173e-06
0.00977029
-8.49832e-07
3.05e-06
0.00976766
-8.50392e-07
3.04832e-06
0.00976504
-8.50991e-07
3.04671e-06
0.00976241
-8.51655e-07
3.04523e-06
0.00975979
-8.52427e-07
3.04398e-06
0.00975717
-8.53378e-07
3.04312e-06
0.00975456
-8.54609e-07
3.04292e-06
0.00975194
-8.56293e-07
3.044e-06
0.00974932
-8.58614e-07
3.04692e-06
0.00974669
-8.61859e-07
3.05507e-06
0.00974405
-8.66185e-07
3.06656e-06
0.00974137
-8.71115e-07
3.10994e-06
0.00973868
-8.789e-07
3.12803e-06
0.00973574
-8.81407e-07
3.38123e-06
-8.95054e-07
3.04769e-06
0.00999847
-1.66781e-07
1.58189e-06
0.00999647
-7.00021e-07
2.2666e-06
0.0099942
-9.05603e-07
2.56844e-06
0.00999179
-1.00648e-06
2.75871e-06
0.00998925
-1.08677e-06
2.9096e-06
0.00998664
-1.14503e-06
3.01423e-06
0.00998397
-1.17743e-06
3.07558e-06
0.00998127
-1.19364e-06
3.11075e-06
0.00997855
-1.20337e-06
3.13308e-06
0.00997582
-1.21036e-06
3.14786e-06
0.00997308
-1.21522e-06
3.15716e-06
0.00997033
-1.21843e-06
3.16279e-06
0.00996758
-1.22073e-06
3.1661e-06
0.00996484
-1.22256e-06
3.1678e-06
0.00996209
-1.22413e-06
3.16849e-06
0.00995934
-1.22559e-06
3.16869e-06
0.00995659
-1.22702e-06
3.16861e-06
0.00995384
-1.2284e-06
3.16815e-06
0.00995109
-1.2297e-06
3.16719e-06
0.00994835
-1.23097e-06
3.16588e-06
0.0099456
-1.23232e-06
3.16456e-06
0.00994286
-1.23379e-06
3.16345e-06
0.00994012
-1.23536e-06
3.16252e-06
0.00993738
-1.23691e-06
3.16163e-06
0.00993464
-1.2384e-06
3.16061e-06
0.00993191
-1.23984e-06
3.15942e-06
0.00992918
-1.24125e-06
3.15809e-06
0.00992644
-1.24268e-06
3.1567e-06
0.00992372
-1.24414e-06
3.15532e-06
0.00992099
-1.24564e-06
3.15398e-06
0.00991826
-1.24717e-06
3.15266e-06
0.00991554
-1.24872e-06
3.15138e-06
0.00991282
-1.25028e-06
3.15011e-06
0.0099101
-1.25186e-06
3.14885e-06
0.00990739
-1.25344e-06
3.14761e-06
0.00990467
-1.25502e-06
3.14637e-06
0.00990196
-1.25659e-06
3.14511e-06
0.00989925
-1.25813e-06
3.14383e-06
0.00989655
-1.25967e-06
3.14251e-06
0.00989384
-1.2612e-06
3.14116e-06
0.00989114
-1.26273e-06
3.13978e-06
0.00988844
-1.26426e-06
3.13839e-06
0.00988574
-1.26581e-06
3.13701e-06
0.00988305
-1.26736e-06
3.13563e-06
0.00988035
-1.26892e-06
3.13429e-06
0.00987766
-1.27047e-06
3.13297e-06
0.00987497
-1.27201e-06
3.13168e-06
0.00987229
-1.27355e-06
3.1304e-06
0.0098696
-1.27508e-06
3.12913e-06
0.00986692
-1.2766e-06
3.12784e-06
0.00986424
-1.27812e-06
3.12654e-06
0.00986156
-1.27965e-06
3.12521e-06
0.00985889
-1.28119e-06
3.12385e-06
0.00985622
-1.28273e-06
3.12248e-06
0.00985355
-1.28428e-06
3.1211e-06
0.00985088
-1.28583e-06
3.11972e-06
0.00984821
-1.28738e-06
3.11834e-06
0.00984555
-1.28891e-06
3.11698e-06
0.00984289
-1.29044e-06
3.11564e-06
0.00984023
-1.29195e-06
3.11431e-06
0.00983757
-1.29345e-06
3.113e-06
0.00983492
-1.29494e-06
3.1117e-06
0.00983227
-1.29642e-06
3.11041e-06
0.00982962
-1.2979e-06
3.10911e-06
0.00982697
-1.29938e-06
3.10781e-06
0.00982433
-1.30085e-06
3.10649e-06
0.00982168
-1.30233e-06
3.10516e-06
0.00981904
-1.30382e-06
3.10382e-06
0.0098164
-1.3053e-06
3.10246e-06
0.00981377
-1.30679e-06
3.1011e-06
0.00981114
-1.30828e-06
3.09973e-06
0.0098085
-1.30976e-06
3.09837e-06
0.00980588
-1.31124e-06
3.097e-06
0.00980325
-1.31272e-06
3.09565e-06
0.00980062
-1.31418e-06
3.0943e-06
0.009798
-1.31565e-06
3.09296e-06
0.00979538
-1.3171e-06
3.09162e-06
0.00979277
-1.31855e-06
3.0903e-06
0.00979015
-1.32e-06
3.08897e-06
0.00978754
-1.32144e-06
3.08765e-06
0.00978493
-1.32288e-06
3.08633e-06
0.00978232
-1.32432e-06
3.085e-06
0.00977971
-1.32575e-06
3.08368e-06
0.00977711
-1.3272e-06
3.08236e-06
0.00977451
-1.32865e-06
3.08106e-06
0.00977191
-1.33011e-06
3.07977e-06
0.00976931
-1.3316e-06
3.07853e-06
0.00976671
-1.33313e-06
3.07737e-06
0.00976412
-1.33474e-06
3.07633e-06
0.00976153
-1.33649e-06
3.07552e-06
0.00975894
-1.33845e-06
3.0751e-06
0.00975635
-1.34077e-06
3.07533e-06
0.00975376
-1.34375e-06
3.07683e-06
0.00975117
-1.34757e-06
3.08017e-06
0.00974857
-1.35343e-06
3.08874e-06
0.00974597
-1.36017e-06
3.10064e-06
0.00974332
-1.3724e-06
3.14452e-06
0.00974066
-1.37732e-06
3.163e-06
0.00973774
-1.37742e-06
3.41764e-06
-1.45882e-06
3.08115e-06
0.00999983
-1.58174e-06
1.58184e-06
0.00999913
-2.26656e-06
2.26678e-06
0.00999823
-2.56864e-06
2.56912e-06
0.00999722
-2.75917e-06
2.75993e-06
0.00999613
-2.91021e-06
2.91133e-06
0.00999499
-3.01506e-06
3.01654e-06
0.00999381
-3.07667e-06
3.07845e-06
0.00999261
-3.11193e-06
3.11407e-06
0.0099914
-3.1343e-06
3.13685e-06
0.00999019
-3.1493e-06
3.15217e-06
0.00998897
-3.15884e-06
3.16197e-06
0.00998775
-3.16446e-06
3.16786e-06
0.00998653
-3.16763e-06
3.17128e-06
0.0099853
-3.1693e-06
3.17312e-06
0.00998407
-3.17001e-06
3.17399e-06
0.00998284
-3.17014e-06
3.17435e-06
0.00998161
-3.16987e-06
3.17442e-06
0.00998038
-3.16922e-06
3.17412e-06
0.00997914
-3.1682e-06
3.17336e-06
0.00997791
-3.16691e-06
3.17223e-06
0.00997667
-3.16555e-06
3.17095e-06
0.00997543
-3.16426e-06
3.16974e-06
0.00997419
-3.16303e-06
3.16863e-06
0.00997295
-3.1618e-06
3.16755e-06
0.0099717
-3.16047e-06
3.1664e-06
0.00997046
-3.15904e-06
3.16514e-06
0.00996921
-3.15753e-06
3.16381e-06
0.00996796
-3.15596e-06
3.16245e-06
0.00996671
-3.15438e-06
3.16108e-06
0.00996546
-3.15281e-06
3.15971e-06
0.0099642
-3.15126e-06