/*--------------------------------*- C++ -*----------------------------------*\
| =========                 |                                                 |
| \\      /  F ield         | OpenFOAM: The Open Source CFD Toolbox           |
|  \\    /   O peration     | Version:  v1806                                 |
|   \\  /    A nd           | Web:      www.OpenFOAM.com                      |
|    \\/     M anipulation  |                                                 |
\*---------------------------------------------------------------------------*/
FoamFile
{
    version     2.0;
    format      ascii;
    class       volScalarField;
    location    "138";
    object      p;
}
// * * * * * * * * * * * * * * * * * * * * * * * * * * * * * * * * * * * * * //

dimensions      [0 2 -2 0 0 0 0];


internalField   nonuniform List<scalar> 
10000
(
0.00885989
0.00856618
0.00832086
0.00819577
0.00811177
0.00802032
0.00792344
0.00783152
0.00774539
0.00766174
0.00757865
0.00749571
0.00741294
0.00733052
0.00724862
0.00716704
0.00708533
0.00700326
0.00692105
0.00683904
0.0067573
0.00667559
0.00659362
0.00651127
0.00642872
0.00634622
0.00626395
0.00618187
0.00609977
0.00601743
0.00593475
0.00585176
0.00576861
0.0056855
0.00560252
0.00551969
0.00543692
0.00535407
0.00527101
0.00518769
0.00510412
0.00502036
0.00493653
0.0048527
0.00476893
0.00468521
0.00460152
0.00451778
0.00443393
0.00434993
0.00426574
0.00418138
0.00409689
0.00401229
0.00392764
0.00384296
0.00375826
0.00367354
0.00358878
0.00350397
0.00341908
0.00333408
0.00324897
0.00316375
0.00307842
0.00299299
0.00290748
0.0028219
0.00273626
0.00265056
0.00256481
0.002479
0.00239313
0.00230718
0.00222116
0.00213505
0.00204885
0.00196257
0.0018762
0.00178974
0.00170322
0.00161662
0.00152995
0.00144321
0.00135641
0.00126955
0.00118264
0.00109566
0.00100864
0.000921575
0.000834498
0.000747445
0.000660496
0.000573755
0.000487558
0.000401911
0.000319217
0.000233885
0.000171013
1.21965e-05
0.00863413
0.00842255
0.00823638
0.00813359
0.00805965
0.00797836
0.00789102
0.007806
0.00772449
0.00764424
0.00756386
0.00748311
0.00740214
0.00732125
0.0072406
0.00715999
0.00707906
0.00699767
0.0069161
0.00683469
0.00675349
0.00667225
0.00659068
0.00650868
0.00642642
0.00634417
0.00626211
0.00618022
0.00609831
0.00601617
0.00593366
0.00585083
0.0057678
0.00568477
0.00560186
0.00551909
0.00543638
0.0053536
0.00527063
0.00518739
0.0051039
0.00502021
0.00493643
0.00485263
0.00476887
0.00468517
0.00460147
0.00451773
0.00443388
0.00434988
0.00426571
0.00418138
0.0040969
0.00401233
0.0039277
0.00384304
0.00375836
0.00367366
0.00358891
0.0035041
0.00341921
0.00333421
0.0032491
0.00316387
0.00307854
0.0029931
0.00290759
0.00282201
0.00273637
0.00265067
0.00256492
0.00247912
0.00239325
0.00230731
0.00222129
0.00213519
0.00204899
0.00196271
0.00187634
0.00178989
0.00170336
0.00161675
0.00153008
0.00144334
0.00135654
0.00126968
0.00118275
0.00109577
0.00100872
0.000921627
0.00083449
0.000747331
0.000660191
0.000573115
0.000486245
0.000399521
0.000313739
0.000226401
0.000144881
3.30904e-05
0.00858161
0.00842509
0.00827223
0.00817223
0.00809311
0.00800941
0.00792091
0.00783372
0.00774931
0.00766627
0.00758343
0.00750051
0.00741762
0.00733503
0.00725285
0.00717083
0.00708865
0.0070062
0.00692371
0.00684145
0.00675946
0.00667751
0.00659533
0.0065128
0.00643007
0.00634738
0.00626491
0.00618266
0.00610044
0.00601805
0.00593534
0.00585232
0.00576912
0.00568591
0.00560281
0.00551987
0.00543701
0.0053541
0.00527103
0.00518772
0.00510417
0.00502043
0.00493659
0.00485274
0.00476894
0.00468518
0.00460144
0.00451766
0.00443378
0.00434976
0.00426556
0.00418121
0.00409672
0.00401213
0.00392748
0.0038428
0.00375811
0.00367339
0.00358863
0.00350382
0.00341892
0.00333392
0.0032488
0.00316357
0.00307823
0.00299279
0.00290727
0.00282168
0.00273604
0.00265034
0.00256459
0.00247879
0.00239292
0.00230699
0.00222097
0.00213487
0.00204867
0.00196239
0.00187601
0.00178956
0.00170302
0.00161641
0.00152973
0.00144299
0.00135618
0.00126932
0.00118239
0.0010954
0.00100835
0.000921247
0.000834091
0.000746899
0.000659701
0.000572533
0.000485513
0.000398635
0.000312812
0.000225985
0.000148584
3.28102e-05
0.0085579
0.00840152
0.00824992
0.00814811
0.00806683
0.00798323
0.00789634
0.00781084
0.00772794
0.00764646
0.00756533
0.0074841
0.00740279
0.00732161
0.00724071
0.00715992
0.00707893
0.0069976
0.00691607
0.00683459
0.00675325
0.00667189
0.0065903
0.00650837
0.00642619
0.00634396
0.00626186
0.00617991
0.00609796
0.00601582
0.00593336
0.00585058
0.0057676
0.00568458
0.00560164
0.00551883
0.00543609
0.00535328
0.00527031
0.00518708
0.0051036
0.00501992
0.00493614
0.00485235
0.00476859
0.00468488
0.00460119
0.00451746
0.00443363
0.00434965
0.00426548
0.00418115
0.00409667
0.00401209
0.00392744
0.00384276
0.00375806
0.00367335
0.0035886
0.0035038
0.00341892
0.00333394
0.00324884
0.00316362
0.00307829
0.00299286
0.00290734
0.00282175
0.00273611
0.00265041
0.00256466
0.00247885
0.00239299
0.00230705
0.00222104
0.00213494
0.00204875
0.00196247
0.0018761
0.00178965
0.00170311
0.0016165
0.00152982
0.00144308
0.00135627
0.0012694
0.00118246
0.00109547
0.00100841
0.000921291
0.000834112
0.000746885
0.00065963
0.000572383
0.000485253
0.000398279
0.00031237
0.000225606
0.000148038
3.05183e-05
0.00854544
0.00838877
0.00824278
0.00814798
0.00807141
0.00799062
0.00790554
0.00782103
0.00773834
0.00765662
0.00757508
0.00749334
0.00741137
0.00732942
0.00724774
0.00716626
0.0070847
0.00700286
0.00692081
0.00683877
0.00675689
0.00667507
0.00659314
0.00651096
0.00642857
0.00634614
0.00626381
0.00618159
0.00609939
0.00601703
0.00593439
0.00585147
0.00576839
0.00568529
0.00560229
0.00551941
0.00543661
0.00535375
0.00527071
0.00518742
0.00510389
0.00502015
0.00493632
0.00485247
0.00476867
0.00468493
0.00460122
0.00451748
0.00443364
0.00434965
0.00426548
0.00418114
0.00409664
0.00401204
0.00392737
0.00384268
0.00375797
0.00367325
0.0035885
0.0035037
0.00341882
0.00333385
0.00324875
0.00316354
0.00307821
0.00299277
0.00290725
0.00282165
0.00273599
0.00265028
0.00256452
0.0024787
0.00239283
0.0023069
0.00222088
0.00213479
0.0020486
0.00196233
0.00187597
0.00178952
0.00170299
0.00161638
0.00152971
0.00144296
0.00135615
0.00126928
0.00118234
0.00109534
0.00100827
0.000921141
0.000833947
0.000746698
0.000659414
0.000572129
0.000484956
0.000397938
0.000311992
0.000225185
0.000147672
3.02638e-05
0.00854544
0.00838877
0.00824278
0.00814798
0.00807141
0.00799062
0.00790554
0.00782103
0.00773834
0.00765662
0.00757508
0.00749334
0.00741137
0.00732942
0.00724773
0.00716626
0.0070847
0.00700286
0.00692081
0.00683878
0.00675688
0.00667506
0.00659313
0.00651095
0.00642857
0.00634615
0.00626382
0.00618161
0.0060994
0.00601702
0.00593438
0.00585146
0.00576838
0.00568529
0.00560229
0.00551942
0.00543661
0.00535375
0.0052707
0.00518742
0.00510388
0.00502015
0.00493632
0.00485248
0.00476868
0.00468494
0.00460122
0.00451748
0.00443364
0.00434964
0.00426548
0.00418113
0.00409664
0.00401204
0.00392738
0.00384269
0.00375798
0.00367325
0.0035885
0.0035037
0.00341882
0.00333384
0.00324874
0.00316353
0.0030782
0.00299277
0.00290725
0.00282165
0.00273599
0.00265028
0.00256452
0.00247871
0.00239284
0.0023069
0.00222089
0.00213479
0.0020486
0.00196232
0.00187596
0.00178951
0.00170298
0.00161638
0.0015297
0.00144296
0.00135615
0.00126928
0.00118234
0.00109534
0.00100828
0.000921143
0.000833948
0.000746699
0.000659414
0.000572129
0.000484955
0.000397937
0.000311991
0.000225183
0.000147671
3.02627e-05
0.0085579
0.00840152
0.00824992
0.00814811
0.00806683
0.00798323
0.00789634
0.00781084
0.00772794
0.00764646
0.00756533
0.00748411
0.00740279
0.00732161
0.0072407
0.00715991
0.00707892
0.0069976
0.00691608
0.00683461
0.00675325
0.00667188
0.00659028
0.00650835
0.00642618
0.00634398
0.00626189
0.00617993
0.00609796
0.0060158
0.00593333
0.00585056
0.00576759
0.00568459
0.00560167
0.00551886
0.0054361
0.00535328
0.00527028
0.00518705
0.00510358
0.00501992
0.00493615
0.00485237
0.00476861
0.0046849
0.0046012
0.00451746
0.00443361
0.00434962
0.00426546
0.00418113
0.00409666
0.00401209
0.00392745
0.00384278
0.00375808
0.00367337
0.00358862
0.00350381
0.00341892
0.00333393
0.00324882
0.0031636
0.00307827
0.00299285
0.00290733
0.00282175
0.00273611
0.00265042
0.00256467
0.00247887
0.002393
0.00230706
0.00222104
0.00213494
0.00204874
0.00196246
0.00187609
0.00178963
0.0017031
0.00161649
0.00152982
0.00144308
0.00135627
0.0012694
0.00118247
0.00109548
0.00100842
0.000921297
0.000834116
0.000746886
0.00065963
0.000572381
0.000485249
0.000398274
0.000312365
0.000225601
0.000148035
3.05159e-05
0.00858161
0.00842509
0.00827223
0.00817223
0.00809311
0.00800941
0.00792091
0.00783372
0.00774932
0.00766627
0.00758343
0.00750051
0.00741762
0.00733504
0.00725285
0.00717083
0.00708864
0.00700619
0.00692371
0.00684147
0.00675948
0.00667752
0.00659531
0.00651278
0.00643007
0.0063474
0.00626494
0.00618267
0.00610043
0.00601801
0.0059353
0.0058523
0.00576913
0.00568595
0.00560287
0.00551992
0.00543702
0.00535408
0.00527098
0.00518767
0.00510412
0.00502041
0.00493661
0.00485278
0.00476898
0.00468522
0.00460147
0.00451767
0.00443377
0.00434973
0.00426552
0.00418117
0.00409669
0.00401212
0.00392749
0.00384282
0.00375814
0.00367342
0.00358866
0.00350384
0.00341892
0.00333391
0.00324878
0.00316355
0.0030782
0.00299277
0.00290726
0.00282168
0.00273604
0.00265035
0.00256461
0.00247881
0.00239294
0.002307
0.00222097
0.00213486
0.00204866
0.00196237
0.001876
0.00178954
0.00170301
0.0016164
0.00152973
0.00144299
0.00135619
0.00126933
0.0011824
0.00109541
0.00100836
0.000921254
0.000834095
0.0007469
0.000659698
0.000572527
0.000485505
0.000398626
0.000312803
0.000225978
0.000148578
3.28067e-05
0.00863413
0.00842255
0.00823638
0.00813359
0.00805965
0.00797836
0.00789102
0.00780599
0.0077245
0.00764425
0.00756386
0.0074831
0.00740214
0.00732126
0.00724062
0.00716
0.00707904
0.00699765
0.00691609
0.0068347
0.00675351
0.00667225
0.00659066
0.00650866
0.00642642
0.0063442
0.00626215
0.00618024
0.00609829
0.00601612
0.0059336
0.00585079
0.00576781
0.00568483
0.00560194
0.00551916
0.00543641
0.00535358
0.00527057
0.00518732
0.00510384
0.00502018
0.00493644
0.00485267
0.00476894
0.00468523
0.00460152
0.00451775
0.00443387
0.00434985
0.00426566
0.00418133
0.00409686
0.00401231
0.0039277
0.00384306
0.00375839
0.00367369
0.00358895
0.00350413
0.00341922
0.00333421
0.00324908
0.00316385
0.00307851
0.00299308
0.00290757
0.002822
0.00273637
0.00265069
0.00256494
0.00247914
0.00239327
0.00230733
0.0022213
0.00213519
0.00204899
0.0019627
0.00187632
0.00178987
0.00170334
0.00161674
0.00153008
0.00144334
0.00135655
0.00126969
0.00118277
0.00109578
0.00100873
0.000921635
0.000834494
0.000747331
0.000660187
0.000573107
0.000486236
0.00039951
0.000313728
0.000226392
0.000144874
3.30854e-05
0.00885989
0.00856618
0.00832086
0.00819576
0.00811177
0.00802032
0.00792344
0.00783151
0.00774539
0.00766174
0.00757865
0.0074957
0.00741293
0.00733053
0.00724863
0.00716705
0.00708532
0.00700325
0.00692105
0.00683905
0.00675731
0.00667559
0.00659359
0.00651124
0.00642872
0.00634626
0.00626401
0.0061819
0.00609975
0.00601737
0.00593468
0.00585171
0.00576861
0.00568555
0.0056026
0.00551976
0.00543695
0.00535405
0.00527096
0.00518762
0.00510405
0.00502033
0.00493653
0.00485274
0.00476899
0.00468528
0.00460157
0.0045178
0.00443392
0.00434989
0.00426569
0.00418133
0.00409685
0.00401227
0.00392764
0.00384298
0.0037583
0.00367358
0.00358882
0.003504
0.00341909
0.00333407
0.00324895
0.00316372
0.00307838
0.00299296
0.00290746
0.00282189
0.00273626
0.00265058
0.00256484
0.00247903
0.00239316
0.0023072
0.00222117
0.00213505
0.00204884
0.00196255
0.00187618
0.00178973
0.0017032
0.0016166
0.00152994
0.00144321
0.00135642
0.00126956
0.00118265
0.00109568
0.00100865
0.000921585
0.000834505
0.000747448
0.000660495
0.000573751
0.000487551
0.000401902
0.000319209
0.000233877
0.000171008
1.21942e-05
0.00863413
0.00842255
0.00823638
0.00813359
0.00805965
0.00797837
0.00789102
0.00780599
0.00772449
0.00764425
0.00756386
0.0074831
0.00740213
0.00732126
0.00724062
0.00716001
0.00707906
0.00699766
0.00691608
0.00683466
0.00675346
0.00667224
0.00659069
0.00650871
0.00642647
0.00634422
0.00626214
0.0061802
0.00609826
0.00601609
0.0059336
0.0058508
0.00576782
0.00568483
0.00560194
0.00551916
0.00543642
0.0053536
0.00527058
0.00518732
0.00510382
0.00502016
0.00493641
0.00485266
0.00476894
0.00468525
0.00460155
0.00451779
0.00443391
0.00434987
0.00426567
0.00418131
0.00409683
0.00401227
0.00392766
0.00384303
0.00375837
0.00367369
0.00358896
0.00350416
0.00341926
0.00333425
0.00324912
0.00316387
0.00307852
0.00299308
0.00290756
0.00282198
0.00273634
0.00265066
0.00256492
0.00247913
0.00239327
0.00230733
0.00222131
0.0021352
0.002049
0.00196271
0.00187634
0.00178988
0.00170334
0.00161674
0.00153007
0.00144333
0.00135653
0.00126968
0.00118275
0.00109577
0.00100873
0.000921636
0.000834499
0.000747339
0.000660198
0.000573119
0.000486248
0.000399522
0.000313739
0.000226401
0.000144881
3.30911e-05
0.00840835
0.00827891
0.00815195
0.00807146
0.00800759
0.00793656
0.00785879
0.00778064
0.00770378
0.00762696
0.00754929
0.00747074
0.00739165
0.00731236
0.00723298
0.00715329
0.00707307
0.00699234
0.00691142
0.00683064
0.00675002
0.0066693
0.00658817
0.00650655
0.00642459
0.00634255
0.00626065
0.0061789
0.00609715
0.0060152
0.00593291
0.0058503
0.00576746
0.00568457
0.00560173
0.00551898
0.00543627
0.0053535
0.00527056
0.00518739
0.00510399
0.00502042
0.00493674
0.00485303
0.00476933
0.00468564
0.00460193
0.00451815
0.00443426
0.00435023
0.00426603
0.00418169
0.00409724
0.00401271
0.00392812
0.00384351
0.00375888
0.00367421
0.00358949
0.00350469
0.00341979
0.00333478
0.00324965
0.0031644
0.00307905
0.0029936
0.00290808
0.0028225
0.00273686
0.00265117
0.00256544
0.00247964
0.00239378
0.00230784
0.00222183
0.00213572
0.00204952
0.00196323
0.00187685
0.0017904
0.00170386
0.00161726
0.00153058
0.00144385
0.00135705
0.00127018
0.00118326
0.00109626
0.0010092
0.000922072
0.000834873
0.000747605
0.000660269
0.000572847
0.000485287
0.000397444
0.000308408
0.00021889
0.000116966
5.62106e-05
0.00835584
0.00828148
0.00818785
0.00811015
0.00804114
0.00796769
0.0078887
0.00780838
0.00772867
0.00764906
0.00756886
0.00748809
0.00740712
0.00732617
0.00724522
0.00716406
0.00708255
0.00700077
0.00691896
0.00683735
0.00675593
0.00667449
0.00659275
0.0065106
0.00642815
0.00634565
0.0062633
0.00618115
0.00609908
0.0060169
0.00593445
0.00585169
0.0057687
0.00568562
0.00560258
0.00551963
0.00543674
0.00535382
0.00527078
0.00518754
0.0051041
0.00502048
0.00493677
0.00485301
0.00476925
0.0046855
0.00460173
0.00451791
0.00443398
0.00434993
0.00426572
0.00418138
0.00409692
0.00401238
0.00392778
0.00384316
0.0037585
0.00367381
0.00358906
0.00350424
0.00341933
0.00333431
0.00324917
0.00316392
0.00307857
0.00299312
0.00290761
0.00282203
0.00273639
0.00265071
0.00256498
0.00247918
0.00239332
0.00230738
0.00222137
0.00213526
0.00204906
0.00196277
0.00187639
0.00178993
0.00170339
0.00161678
0.0015301
0.00144336
0.00135656
0.00126969
0.00118276
0.00109576
0.0010087
0.000921556
0.000834337
0.000747036
0.000659642
0.000572129
0.000484416
0.000396419
0.000307352
0.000218367
0.000120993
5.56018e-05
0.00833213
0.00825791
0.00816553
0.00808602
0.00801483
0.00794144
0.00786405
0.00778547
0.0077073
0.00762923
0.00755071
0.00747166
0.0073923
0.00731277
0.00723306
0.0071531
0.00707282
0.00699222
0.00691143
0.0068306
0.00674979
0.00666889
0.00658774
0.00650621
0.00642435
0.00634234
0.00626036
0.0061785
0.00609669
0.00601476
0.00593256
0.00585005
0.00576729
0.00568441
0.00560153
0.00551871
0.00543593
0.00535311
0.00527017
0.00518702
0.00510366
0.00502012
0.00493646
0.00485275
0.00476902
0.00468531
0.00460158
0.0045178
0.00443392
0.00434991
0.00426576
0.00418145
0.00409702
0.0040125
0.00392791
0.00384328
0.00375861
0.00367391
0.00358916
0.00350434
0.00341943
0.00333442
0.0032493
0.00316407
0.00307873
0.00299331
0.0029078
0.00282223
0.0027366
0.00265092
0.00256518
0.00247938
0.00239352
0.00230758
0.00222156
0.00213545
0.00204925
0.00196296
0.00187659
0.00179013
0.0017036
0.00161699
0.00153031
0.00144357
0.00135676
0.00126989
0.00118296
0.00109595
0.00100887
0.000921712
0.000834468
0.000747129
0.000659677
0.000572084
0.000484262
0.00039617
0.000307025
0.000218116
0.00012065
5.3115e-05
0.00831968
0.00824516
0.00815839
0.0080859
0.00801941
0.00794886
0.00787334
0.00779574
0.0077177
0.00763935
0.00756045
0.00748097
0.007401
0.00732067
0.00724011
0.00715942
0.00707857
0.00699751
0.00691622
0.00683482
0.00675342
0.00667202
0.00659051
0.00650875
0.00642673
0.00634454
0.00626235
0.00618023
0.00609814
0.00601596
0.00593356
0.0058509
0.00576803
0.00568507
0.00560212
0.00551924
0.0054364
0.00535354
0.00527054
0.00518735
0.00510394
0.00502035
0.00493663
0.00485286
0.00476909
0.00468533
0.00460157
0.00451777
0.00443388
0.00434987
0.0042657
0.0041814
0.00409696
0.00401242
0.00392782
0.00384317
0.00375849
0.00367378
0.00358902
0.00350419
0.00341929
0.00333428
0.00324917
0.00316395
0.00307862
0.00299319
0.00290769
0.00282211
0.00273647
0.00265077
0.00256502
0.0024792
0.00239333
0.00230738
0.00222136
0.00213525
0.00204905
0.00196277
0.00187641
0.00178996
0.00170343
0.00161683
0.00153016
0.00144343
0.00135662
0.00126975
0.00118281
0.0010958
0.00100871
0.000921537
0.000834277
0.000746915
0.000659432
0.0005718
0.000483933
0.000395797
0.000306615
0.00021766
0.000120233
5.28322e-05
0.00831968
0.00824516
0.00815839
0.0080859
0.00801941
0.00794886
0.00787335
0.00779574
0.0077177
0.00763935
0.00756045
0.00748096
0.00740099
0.00732067
0.00724012
0.00715943
0.00707857
0.0069975
0.00691622
0.00683483
0.00675343
0.00667202
0.0065905
0.00650874
0.00642672
0.00634455
0.00626237
0.00618024
0.00609815
0.00601595
0.00593354
0.00585088
0.00576802
0.00568507
0.00560213
0.00551925
0.00543641
0.00535354
0.00527054
0.00518734
0.00510393
0.00502034
0.00493663
0.00485286
0.00476909
0.00468533
0.00460157
0.00451777
0.00443388
0.00434986
0.0042657
0.00418139
0.00409696
0.00401243
0.00392782
0.00384318
0.0037585
0.00367378
0.00358902
0.00350419
0.00341928
0.00333428
0.00324916
0.00316394
0.00307861
0.00299319
0.00290769
0.00282211
0.00273647
0.00265077
0.00256502
0.00247921
0.00239333
0.00230738
0.00222136
0.00213525
0.00204905
0.00196277
0.0018764
0.00178996
0.00170343
0.00161683
0.00153016
0.00144342
0.00135662
0.00126975
0.00118281
0.0010958
0.00100871
0.000921538
0.000834278
0.000746916
0.000659433
0.000571801
0.000483933
0.000395797
0.000306614
0.00021766
0.000120233
5.28322e-05
0.00833213
0.00825791
0.00816553
0.00808602
0.00801483
0.00794144
0.00786405
0.00778547
0.0077073
0.00762924
0.00755072
0.00747165
0.00739229
0.00731277
0.00723308
0.00715311
0.0070728
0.0069922
0.00691143
0.00683062
0.00674981
0.0066689
0.00658772
0.00650618
0.00642433
0.00634235
0.0062604
0.00617854
0.0060967
0.00601474
0.00593252
0.00585001
0.00576728
0.00568443
0.00560156
0.00551875
0.00543596
0.00535312
0.00527015
0.005187
0.00510364
0.00502011
0.00493646
0.00485276
0.00476904
0.00468532
0.00460159
0.0045178
0.00443392
0.0043499
0.00426574
0.00418144
0.00409702
0.0040125
0.00392792
0.00384329
0.00375863
0.00367393
0.00358917
0.00350434
0.00341943
0.00333441
0.00324929
0.00316406
0.00307872
0.0029933
0.0029078
0.00282223
0.00273661
0.00265093
0.00256519
0.00247939
0.00239352
0.00230758
0.00222156
0.00213545
0.00204925
0.00196296
0.00187658
0.00179012
0.00170359
0.00161699
0.00153031
0.00144357
0.00135677
0.0012699
0.00118296
0.00109595
0.00100887
0.000921714
0.00083447
0.00074713
0.000659676
0.000572082
0.000484259
0.000396167
0.000307022
0.000218114
0.000120648
5.31139e-05
0.00835584
0.00828148
0.00818785
0.00811015
0.00804114
0.00796769
0.0078887
0.00780838
0.00772867
0.00764906
0.00756886
0.00748809
0.00740711
0.00732617
0.00724523
0.00716407
0.00708253
0.00700074
0.00691896
0.00683738
0.00675597
0.0066745
0.00659272
0.00651055
0.00642813
0.00634567
0.00626334
0.00618119
0.00609909
0.00601688
0.0059344
0.00585165
0.00576869
0.00568564
0.00560263
0.00551968
0.00543677
0.00535382
0.00527075
0.0051875
0.00510406
0.00502047
0.00493677
0.00485303
0.00476928
0.00468553
0.00460176
0.00451792
0.00443397
0.0043499
0.00426569
0.00418135
0.0040969
0.00401237
0.00392779
0.00384317
0.00375852
0.00367383
0.00358908
0.00350426
0.00341933
0.0033343
0.00324916
0.0031639
0.00307855
0.00299311
0.0029076
0.00282203
0.0027364
0.00265072
0.00256499
0.00247919
0.00239333
0.00230739
0.00222137
0.00213525
0.00204905
0.00196276
0.00187638
0.00178992
0.00170339
0.00161678
0.00153011
0.00144337
0.00135657
0.0012697
0.00118277
0.00109577
0.0010087
0.000921558
0.000834336
0.000747032
0.000659635
0.000572121
0.000484407
0.00039641
0.000307344
0.00021836
0.000120989
5.55999e-05
0.00840835
0.00827891
0.00815195
0.00807146
0.00800759
0.00793656
0.0078588
0.00778065
0.00770378
0.00762696
0.00754929
0.00747074
0.00739165
0.00731237
0.00723299
0.00715329
0.00707305
0.00699232
0.00691143
0.00683067
0.00675005
0.0066693
0.00658814
0.00650651
0.00642457
0.00634257
0.0062607
0.00617894
0.00609715
0.00601516
0.00593286
0.00585026
0.00576746
0.0056846
0.00560178
0.00551903
0.00543629
0.00535349
0.00527052
0.00518734
0.00510395
0.0050204
0.00493675
0.00485307
0.00476938
0.00468568
0.00460196
0.00451816
0.00443425
0.00435019
0.00426599
0.00418166
0.00409721
0.0040127
0.00392813
0.00384354
0.00375891
0.00367424
0.00358951
0.0035047
0.00341979
0.00333477
0.00324963
0.00316438
0.00307902
0.00299358
0.00290807
0.0028225
0.00273687
0.00265119
0.00256545
0.00247966
0.00239379
0.00230785
0.00222183
0.00213571
0.00204951
0.00196322
0.00187684
0.00179038
0.00170385
0.00161725
0.00153059
0.00144385
0.00135706
0.00127019
0.00118327
0.00109627
0.00100921
0.000922075
0.000834872
0.0007476
0.000660262
0.000572838
0.000485276
0.000397434
0.000308398
0.000218882
0.000116961
5.62088e-05
0.00863413
0.00842255
0.00823638
0.00813359
0.00805965
0.00797837
0.00789102
0.00780599
0.00772449
0.00764425
0.00756386
0.0074831
0.00740213
0.00732125
0.00724062
0.00716001
0.00707906
0.00699767
0.0069161
0.00683468
0.00675348
0.00667222
0.00659065
0.00650867
0.00642646
0.00634425
0.00626219
0.00618025
0.00609826
0.00601606
0.00593354
0.00585075
0.00576781
0.00568486
0.005602
0.00551922
0.00543645
0.00535358
0.00527054
0.00518727
0.00510378
0.00502014
0.00493642
0.00485269
0.00476898
0.00468529
0.00460157
0.00451779
0.00443389
0.00434984
0.00426563
0.00418128
0.00409681
0.00401227
0.00392768
0.00384306
0.00375841
0.00367372
0.00358898
0.00350417
0.00341925
0.00333423
0.00324909
0.00316384
0.00307849
0.00299306
0.00290755
0.00282198
0.00273636
0.00265068
0.00256495
0.00247915
0.00239329
0.00230734
0.00222131
0.0021352
0.00204899
0.0019627
0.00187632
0.00178986
0.00170333
0.00161673
0.00153007
0.00144334
0.00135654
0.00126969
0.00118277
0.00109578
0.00100874
0.000921643
0.000834502
0.000747338
0.000660193
0.000573111
0.000486239
0.000399512
0.000313729
0.000226393
0.000144876
3.30904e-05
0.00858161
0.00842509
0.00827223
0.00817223
0.00809311
0.00800941
0.0079209
0.00783371
0.00774932
0.00766628
0.00758344
0.00750049
0.00741761
0.00733504
0.00725286
0.00717084
0.00708865
0.00700621
0.00692371
0.00684143
0.00675942
0.00667746
0.0065953
0.00651284
0.00643016
0.00634749
0.00626498
0.00618264
0.00610034
0.00601789
0.0059352
0.00585225
0.00576916
0.00568605
0.005603
0.00552004
0.0054371
0.00535408
0.00527091
0.00518754
0.00510398
0.0050203
0.00493655
0.0048528
0.00476907
0.00468536
0.00460161
0.00451778
0.00443382
0.00434971
0.00426545
0.00418106
0.00409656
0.004012
0.00392741
0.0038428
0.00375816
0.00367349
0.00358876
0.00350394
0.00341901
0.00333397
0.0032488
0.00316353
0.00307816
0.0029927
0.00290718
0.00282161
0.00273599
0.00265033
0.00256461
0.00247883
0.00239298
0.00230705
0.00222102
0.0021349
0.00204869
0.00196239
0.001876
0.00178953
0.00170298
0.00161637
0.0015297
0.00144296
0.00135617
0.00126932
0.0011824
0.00109542
0.00100838
0.000921273
0.000834115
0.000746918
0.000659712
0.000572537
0.000485509
0.000398626
0.0003128
0.000225973
0.000148575
3.28069e-05
0.00835584
0.00828148
0.00818785
0.00811015
0.00804114
0.00796769
0.00788869
0.00780838
0.00772867
0.00764907
0.00756886
0.00748809
0.00740711
0.00732617
0.00724521
0.00716405
0.00708255
0.00700078
0.00691898
0.00683736
0.00675591
0.00667445
0.00659271
0.0065106
0.00642819
0.00634571
0.00626335
0.00618116
0.00609904
0.00601682
0.00593437
0.00585165
0.00576872
0.0056857
0.00560269
0.00551973
0.0054368
0.00535382
0.00527071
0.00518744
0.00510399
0.00502041
0.00493674
0.00485304
0.00476932
0.0046856
0.00460182
0.00451797
0.004434
0.0043499
0.00426566
0.00418129
0.00409684
0.00401232
0.00392775
0.00384316
0.00375854
0.00367387
0.00358914
0.00350431
0.00341938
0.00333433
0.00324916
0.00316389
0.00307852
0.00299307
0.00290755
0.00282199
0.00273637
0.00265071
0.00256499
0.00247921
0.00239336
0.00230743
0.0022214
0.00213528
0.00204907
0.00196277
0.00187638
0.00178991
0.00170337
0.00161676
0.00153008
0.00144335
0.00135655
0.0012697
0.00118277
0.00109578
0.00100871
0.000921573
0.000834352
0.000747047
0.000659647
0.000572128
0.000484411
0.000396409
0.00030734
0.000218355
0.000120984
5.5598e-05
0.00830333
0.00828405
0.00822373
0.00814882
0.00807467
0.00799875
0.0079185
0.00783607
0.00775359
0.00767115
0.00758831
0.00750529
0.0074225
0.00733997
0.00725745
0.0071748
0.00709203
0.00700924
0.00692655
0.00684405
0.00676175
0.00667954
0.00659722
0.00651465
0.00643183
0.0063489
0.00626608
0.00618345
0.00610098
0.00601852
0.00593592
0.00585308
0.00577002
0.00568682
0.00560359
0.0055204
0.00543726
0.00535412
0.00527093
0.00518761
0.00510416
0.00502057
0.00493689
0.00485315
0.00476937
0.00468555
0.00460169
0.00451776
0.00443374
0.0043496
0.00426535
0.004181
0.00409655
0.00401205
0.00392749
0.00384289
0.00375824
0.00367355
0.00358878
0.00350392
0.00341896
0.0033339
0.00324873
0.00316345
0.00307809
0.00299265
0.00290715
0.00282159
0.00273598
0.00265032
0.0025646
0.00247881
0.00239295
0.00230701
0.00222098
0.00213485
0.00204864
0.00196234
0.00187595
0.00178948
0.00170294
0.00161633
0.00152966
0.00144293
0.00135613
0.00126927
0.00118234
0.00109534
0.00100826
0.000921107
0.000833862
0.00074652
0.000659058
0.000571446
0.000483574
0.000395417
0.000306316
0.000217871
0.000124965
5.50901e-05
0.00827962
0.00826047
0.00820141
0.0081247
0.00804836
0.0079725
0.00789388
0.00781322
0.00773227
0.00765133
0.00757016
0.0074889
0.00740776
0.00732661
0.00724528
0.0071638
0.0070823
0.00700078
0.00691913
0.00683735
0.00675555
0.00667383
0.00659211
0.00651023
0.00642806
0.00634565
0.00626318
0.00618079
0.00609853
0.0060163
0.00593397
0.00585141
0.00576861
0.00568561
0.00560253
0.00551944
0.00543637
0.00535331
0.00527021
0.005187
0.00510366
0.00502018
0.00493658
0.00485289
0.00476913
0.00468533
0.00460148
0.00451757
0.00443358
0.00434948
0.00426528
0.00418098
0.00409658
0.00401211
0.00392757
0.00384298
0.00375832
0.00367361
0.00358883
0.00350396
0.003419
0.00333394
0.00324878
0.00316353
0.0030782
0.00299278
0.0029073
0.00282175
0.00273615
0.00265048
0.00256475
0.00247896
0.00239309
0.00230713
0.0022211
0.00213497
0.00204876
0.00196246
0.00187608
0.00178962
0.00170309
0.00161649
0.00152982
0.00144309
0.00135629
0.00126943
0.00118249
0.00109548
0.00100839
0.000921217
0.000833945
0.000746562
0.00065904
0.000571347
0.000483364
0.000395112
0.000305931
0.000217561
0.000124521
5.26108e-05
0.00826717
0.00824772
0.00819427
0.00812457
0.00805293
0.00797993
0.0079032
0.00782346
0.00774258
0.00766137
0.00757992
0.00749829
0.00741652
0.00733448
0.0072522
0.00716996
0.00708796
0.00700607
0.00692399
0.00684164
0.00675921
0.00667694
0.00659485
0.00651275
0.00643044
0.00634787
0.00626515
0.00618247
0.00609991
0.00601744
0.00593493
0.00585226
0.00576939
0.00568634
0.00560319
0.00552002
0.00543687
0.00535373
0.00527056
0.0051873
0.00510392
0.0050204
0.00493675
0.00485302
0.00476922
0.00468537
0.00460149
0.00451755
0.00443354
0.00434944
0.00426525
0.00418095
0.00409655
0.00401207
0.00392752
0.00384291
0.00375823
0.0036735
0.00358869
0.00350381
0.00341885
0.00333379
0.00324864
0.0031634
0.00307808
0.00299267
0.00290719
0.00282165
0.00273604
0.00265036
0.00256462
0.00247881
0.00239293
0.00230696
0.00222092
0.00213479
0.00204858
0.00196228
0.00187591
0.00178946
0.00170294
0.00161635
0.00152969
0.00144296
0.00135616
0.0012693
0.00118236
0.00109534
0.00100824
0.000921051
0.000833762
0.000746356
0.000658804
0.000571073
0.000483047
0.000394751
0.000305534
0.000217117
0.000124122
5.23347e-05
0.00826717
0.00824772
0.00819427
0.00812457
0.00805293
0.00797994
0.0079032
0.00782345
0.00774258
0.00766139
0.00757992
0.00749827
0.0074165
0.00733449
0.00725224
0.00716998
0.00708795
0.00700604
0.00692398
0.00684165
0.00675923
0.00667695
0.00659484
0.00651273
0.00643043
0.00634788
0.00626518
0.00618249
0.00609992
0.00601743
0.00593491
0.00585224
0.00576937
0.00568633
0.0056032
0.00552004
0.00543689
0.00535375
0.00527056
0.0051873
0.00510391
0.00502039
0.00493674
0.00485301
0.00476922
0.00468538
0.00460149
0.00451756
0.00443355
0.00434945
0.00426525
0.00418095
0.00409655
0.00401207
0.00392752
0.00384291
0.00375823
0.0036735
0.00358869
0.00350381
0.00341885
0.00333379
0.00324864
0.0031634
0.00307808
0.00299267
0.0029072
0.00282165
0.00273604
0.00265037
0.00256462
0.00247881
0.00239293
0.00230696
0.00222092
0.00213479
0.00204858
0.00196228
0.00187591
0.00178946
0.00170294
0.00161635
0.00152969
0.00144296
0.00135616
0.0012693
0.00118236
0.00109534
0.00100824
0.00092105
0.000833761
0.000746355
0.000658804
0.000571073
0.000483047
0.000394751
0.000305534
0.000217117
0.000124123
5.23354e-05
0.00827962
0.00826047
0.00820141
0.0081247
0.00804836
0.00797251
0.00789388
0.00781321
0.00773227
0.00765136
0.00757017
0.00748886
0.00740771
0.00732662
0.00724533
0.00716383
0.00708227
0.00700072
0.00691911
0.00683739
0.00675561
0.00667385
0.00659208
0.00651016
0.00642802
0.00634567
0.00626323
0.00618085
0.00609856
0.00601628
0.00593391
0.00585135
0.00576857
0.00568561
0.00560256
0.00551948
0.00543641
0.00535333
0.00527021
0.00518698
0.00510363
0.00502016
0.00493656
0.00485288
0.00476914
0.00468534
0.0046015
0.00451758
0.00443358