/*--------------------------------*- C++ -*----------------------------------*\
| =========                 |                                                 |
| \\      /  F ield         | OpenFOAM: The Open Source CFD Toolbox           |
|  \\    /   O peration     | Version:  v1806                                 |
|   \\  /    A nd           | Web:      www.OpenFOAM.com                      |
|    \\/     M anipulation  |                                                 |
\*---------------------------------------------------------------------------*/
FoamFile
{
    version     2.0;
    format      ascii;
    class       volVectorField;
    location    "138";
    object      U;
}
// * * * * * * * * * * * * * * * * * * * * * * * * * * * * * * * * * * * * * //

dimensions      [0 1 -1 0 0 0 0];


internalField   nonuniform List<vector> 
10000
(
(0.999785 6.05152e-05 6.05152e-05)
(0.999428 0.000148783 0.000148783)
(0.999 0.000203619 0.000203619)
(0.998469 0.000240915 0.000240914)
(0.997883 0.000270222 0.000270222)
(0.997282 0.000293734 0.000293733)
(0.996673 0.000312019 0.000312018)
(0.996055 0.000326238 0.000326237)
(0.99543 0.000337632 0.000337633)
(0.994801 0.000347001 0.000347003)
(0.99417 0.000354794 0.000354795)
(0.993537 0.00036133 0.00036133)
(0.992904 0.000366864 0.000366865)
(0.99227 0.000371582 0.000371583)
(0.991636 0.000375619 0.000375619)
(0.991002 0.000379087 0.000379084)
(0.990368 0.000382086 0.000382081)
(0.989734 0.000384693 0.000384688)
(0.989101 0.000386958 0.000386956)
(0.988467 0.000388919 0.000388921)
(0.987834 0.000390608 0.000390614)
(0.987201 0.000392054 0.000392063)
(0.986568 0.000393287 0.000393295)
(0.985935 0.00039433 0.000394335)
(0.985303 0.000395207 0.000395206)
(0.984671 0.000395938 0.00039593)
(0.98404 0.000396541 0.000396529)
(0.983408 0.000397032 0.000397019)
(0.982777 0.000397423 0.000397413)
(0.982147 0.000397722 0.000397719)
(0.981516 0.000397939 0.000397944)
(0.980886 0.000398082 0.000398092)
(0.980256 0.00039816 0.000398171)
(0.979627 0.000398182 0.00039819)
(0.978998 0.000398155 0.000398157)
(0.978369 0.000398084 0.000398081)
(0.97774 0.000397973 0.000397966)
(0.977112 0.000397825 0.000397817)
(0.976484 0.000397641 0.000397637)
(0.975856 0.000397424 0.000397426)
(0.975229 0.000397177 0.000397184)
(0.974602 0.000396901 0.000396914)
(0.973976 0.000396602 0.000396617)
(0.973349 0.000396283 0.000396297)
(0.972723 0.000395949 0.000395957)
(0.972098 0.000395602 0.000395603)
(0.971472 0.000395246 0.000395239)
(0.970847 0.000394883 0.000394869)
(0.970223 0.000394514 0.000394496)
(0.969598 0.000394139 0.00039412)
(0.968974 0.000393759 0.000393742)
(0.968351 0.000393372 0.00039336)
(0.967727 0.000392978 0.000392973)
(0.967104 0.000392577 0.000392579)
(0.966482 0.000392168 0.000392177)
(0.965859 0.000391752 0.000391765)
(0.965237 0.000391329 0.000391344)
(0.964615 0.0003909 0.000390915)
(0.963994 0.000390466 0.000390479)
(0.963373 0.000390027 0.000390037)
(0.962752 0.000389586 0.000389592)
(0.962132 0.000389143 0.000389145)
(0.961512 0.000388699 0.000388697)
(0.960892 0.000388256 0.000388251)
(0.960273 0.000387813 0.000387806)
(0.959653 0.00038737 0.000387363)
(0.959035 0.000386929 0.000386922)
(0.958416 0.000386488 0.000386481)
(0.957798 0.000386047 0.000386041)
(0.95718 0.000385605 0.000385601)
(0.956563 0.000385164 0.000385161)
(0.955946 0.000384722 0.000384719)
(0.955329 0.000384279 0.000384276)
(0.954712 0.000383835 0.000383833)
(0.954096 0.00038339 0.000383388)
(0.95348 0.000382944 0.000382942)
(0.952865 0.000382498 0.000382496)
(0.95225 0.000382051 0.00038205)
(0.951635 0.000381603 0.000381603)
(0.95102 0.000381156 0.000381157)
(0.950406 0.000380709 0.00038071)
(0.949792 0.000380262 0.000380265)
(0.949179 0.000379815 0.000379819)
(0.948566 0.00037937 0.000379374)
(0.947953 0.000378925 0.00037893)
(0.94734 0.000378483 0.000378488)
(0.946728 0.000378043 0.000378049)
(0.946116 0.000377609 0.000377614)
(0.945504 0.000377184 0.000377188)
(0.944893 0.000376773 0.000376777)
(0.944282 0.000376388 0.000376392)
(0.943671 0.000376046 0.000376049)
(0.943059 0.000375789 0.00037579)
(0.942448 0.000375641 0.000375642)
(0.941836 0.000375852 0.000375852)
(0.941219 0.000376164 0.000376162)
(0.940607 0.000378717 0.000378713)
(0.939955 0.00037895 0.000378945)
(0.939419 0.000394992 0.000394985)
(0.938433 0.000385001 0.000384991)
(0.999941 7.64452e-05 6.05252e-05)
(0.999919 0.000174209 0.000148841)
(0.999881 0.000217999 0.000203745)
(0.999789 0.000237596 0.000241107)
(0.999672 0.000249849 0.000270493)
(0.999554 0.000257535 0.00029409)
(0.999439 0.000260669 0.000312446)
(0.999322 0.000260675 0.00032673)
(0.999201 0.000259219 0.000338195)
(0.99908 0.000257173 0.000347638)
(0.998958 0.000254841 0.000355504)
(0.998836 0.0002524 0.000362109)
(0.998714 0.000249998 0.000367706)
(0.998591 0.000247714 0.000372472)
(0.998469 0.000245575 0.000376545)
(0.998346 0.000243603 0.000380048)
(0.998223 0.000241822 0.000383094)
(0.998099 0.000240234 0.000385759)
(0.997976 0.00023882 0.000388089)
(0.997853 0.000237559 0.000390113)
(0.997729 0.000236435 0.000391857)
(0.997605 0.000235438 0.000393349)
(0.997481 0.000234559 0.000394618)
(0.997357 0.000233785 0.00039569)
(0.997232 0.000233103 0.000396593)
(0.997108 0.000232509 0.000397354)
(0.996983 0.000231995 0.000397994)
(0.996858 0.000231556 0.000398531)
(0.996733 0.000231182 0.000398973)
(0.996608 0.000230861 0.000399325)
(0.996483 0.000230584 0.000399593)
(0.996357 0.000230346 0.00039978)
(0.996232 0.000230144 0.000399896)
(0.996106 0.000229977 0.000399949)
(0.99598 0.000229846 0.000399952)
(0.995854 0.000229749 0.000399912)
(0.995727 0.000229682 0.000399838)
(0.995601 0.00022964 0.000399733)
(0.995474 0.000229619 0.000399599)
(0.995347 0.000229612 0.000399434)
(0.99522 0.000229617 0.000399239)
(0.995093 0.00022963 0.000399014)
(0.994966 0.000229652 0.00039876)
(0.994838 0.000229681 0.00039848)
(0.99471 0.00022972 0.000398179)
(0.994582 0.000229769 0.000397864)
(0.994454 0.000229828 0.000397539)
(0.994326 0.000229899 0.000397208)
(0.994198 0.000229979 0.000396875)
(0.994069 0.000230068 0.000396542)
(0.99394 0.000230165 0.000396207)
(0.993811 0.000230266 0.000395871)
(0.993682 0.000230371 0.00039553)
(0.993553 0.000230478 0.000395184)
(0.993424 0.000230585 0.00039483)
(0.993294 0.000230693 0.000394467)
(0.993164 0.000230799 0.000394095)
(0.993034 0.000230905 0.000393715)
(0.992904 0.000231011 0.000393327)
(0.992774 0.000231117 0.000392934)
(0.992643 0.000231225 0.000392536)
(0.992513 0.000231333 0.000392136)
(0.992382 0.000231444 0.000391736)
(0.992251 0.000231558 0.000391335)
(0.99212 0.000231674 0.000390936)
(0.991989 0.000231793 0.000390538)
(0.991857 0.000231914 0.000390142)
(0.991726 0.000232036 0.000389747)
(0.991594 0.000232159 0.000389354)
(0.991462 0.000232282 0.000388961)
(0.99133 0.000232405 0.000388569)
(0.991197 0.000232526 0.000388177)
(0.991065 0.000232647 0.000387785)
(0.990932 0.000232766 0.000387393)
(0.990799 0.000232884 0.000387001)
(0.990666 0.000233002 0.00038661)
(0.990533 0.000233118 0.000386219)
(0.9904 0.000233234 0.000385828)
(0.990266 0.000233351 0.000385437)
(0.990133 0.000233467 0.000385046)
(0.989999 0.000233585 0.000384656)
(0.989865 0.000233703 0.000384266)
(0.989731 0.000233822 0.000383876)
(0.989596 0.000233943 0.000383486)
(0.989462 0.000234065 0.000383097)
(0.989327 0.000234189 0.000382709)
(0.989192 0.000234317 0.000382323)
(0.989057 0.000234452 0.000381942)
(0.988922 0.000234597 0.000381569)
(0.988787 0.00023476 0.00038121)
(0.988651 0.000234957 0.000380877)
(0.988515 0.000235207 0.000380583)
(0.988379 0.000235564 0.000380372)
(0.988242 0.000236062 0.000380267)
(0.988106 0.000236965 0.000380516)
(0.987968 0.000238063 0.00038085)
(0.987831 0.000241267 0.000383456)
(0.987685 0.000242578 0.000383633)
(0.987572 0.000256581 0.000400226)
(0.987353 0.000247333 0.000389983)
(0.999894 2.18422e-05 6.05211e-05)
(0.999728 4.3254e-05 0.000148811)
(0.999543 4.33763e-05 0.000203668)
(0.999312 3.72648e-05 0.000240972)
(0.999056 3.28845e-05 0.000270299)
(0.998794 3.00597e-05 0.000293824)
(0.99853 2.7367e-05 0.000312103)
(0.998263 2.48029e-05 0.000326322)
(0.997992 2.28242e-05 0.00033773)
(0.997719 2.14956e-05 0.000347108)
(0.997445 2.06171e-05 0.000354905)
(0.997171 2.00287e-05 0.000361455)
(0.996896 1.96581e-05 0.000367007)
(0.996621 1.94558e-05 0.00037173)
(0.996346 1.93762e-05 0.000375757)
(0.996071 1.93863e-05 0.000379222)
(0.995796 1.94592e-05 0.000382241)
(0.995521 1.95649e-05 0.000384889)
(0.995246 1.96801e-05 0.000387204)
(0.994972 1.98009e-05 0.000389212)
(0.994697 1.99379e-05 0.000390938)
(0.994423 2.00993e-05 0.000392411)
(0.994149 2.02807e-05 0.000393663)
(0.993875 2.04694e-05 0.00039472)
(0.993601 2.06558e-05 0.000395613)
(0.993328 2.08382e-05 0.00039637)
(0.993054 2.10206e-05 0.000397014)
(0.992781 2.1207e-05 0.00039756)
(0.992508 2.13978e-05 0.000398015)
(0.992235 2.15894e-05 0.000398382)
(0.991963 2.17774e-05 0.000398661)
(0.99169 2.1959e-05 0.000398857)
(0.991418 2.2134e-05 0.000398977)
(0.991146 2.23046e-05 0.000399032)
(0.990875 2.24742e-05 0.000399037)
(0.990603 2.26459e-05 0.000399001)
(0.990332 2.28216e-05 0.000398933)
(0.990061 2.3002e-05 0.000398838)
(0.98979 2.31866e-05 0.000398715)
(0.989519 2.33744e-05 0.000398565)
(0.989249 2.35641e-05 0.000398386)
(0.988979 2.37544e-05 0.000398176)
(0.988709 2.39442e-05 0.000397938)
(0.988439 2.41325e-05 0.000397675)
(0.98817 2.43185e-05 0.000397392)
(0.987901 2.45013e-05 0.000397094)
(0.987632 2.46808e-05 0.000396786)
(0.987363 2.48568e-05 0.000396473)
(0.987094 2.50298e-05 0.000396157)
(0.986826 2.52006e-05 0.000395839)
(0.986558 2.53702e-05 0.000395518)
(0.98629 2.55397e-05 0.000395194)
(0.986023 2.57101e-05 0.000394864)
(0.985755 2.58822e-05 0.000394526)
(0.985488 2.60564e-05 0.000394181)
(0.985221 2.62329e-05 0.000393826)
(0.984955 2.64114e-05 0.000393463)
(0.984688 2.65913e-05 0.000393092)
(0.984422 2.6772e-05 0.000392716)
(0.984156 2.69526e-05 0.000392335)
(0.98389 2.71327e-05 0.000391952)
(0.983625 2.73118e-05 0.000391567)
(0.983359 2.74896e-05 0.000391183)
(0.983094 2.76661e-05 0.000390799)
(0.982829 2.78415e-05 0.000390415)
(0.982565 2.80159e-05 0.000390033)
(0.9823 2.81896e-05 0.000389651)
(0.982036 2.83625e-05 0.000389269)
(0.981772 2.85348e-05 0.000388888)
(0.981509 2.87064e-05 0.000388505)
(0.981245 2.88773e-05 0.000388122)
(0.980982 2.90475e-05 0.000387739)
(0.980719 2.92169e-05 0.000387354)
(0.980456 2.93855e-05 0.00038697)
(0.980194 2.95535e-05 0.000386585)
(0.979931 2.97211e-05 0.000386199)
(0.979669 2.98884e-05 0.000385814)
(0.979407 3.00557e-05 0.000385429)
(0.979146 3.02232e-05 0.000385044)
(0.978884 3.03911e-05 0.000384659)
(0.978623 3.05596e-05 0.000384274)
(0.978362 3.0729e-05 0.000383889)
(0.978101 3.08995e-05 0.000383505)
(0.977841 3.10712e-05 0.000383121)
(0.977581 3.12442e-05 0.000382738)
(0.977321 3.14189e-05 0.000382356)
(0.977061 3.15961e-05 0.000381977)
(0.976801 3.17772e-05 0.000381602)
(0.976542 3.19648e-05 0.000381236)
(0.976282 3.21632e-05 0.000380884)
(0.976023 3.238e-05 0.000380557)
(0.975764 3.26263e-05 0.000380271)
(0.975506 3.29226e-05 0.000380068)
(0.975247 3.32918e-05 0.000379973)
(0.974987 3.37756e-05 0.000380235)
(0.974727 3.44137e-05 0.000380589)
(0.974467 3.50633e-05 0.000383228)
(0.974192 3.60853e-05 0.000383462)
(0.973961 3.4446e-05 0.000400051)
(0.973545 3.57163e-05 0.000389731)
(0.999894 8.95345e-06 6.05213e-05)
(0.999728 2.7569e-05 0.000148817)
(0.999542 4.36319e-05 0.000203685)
(0.999313 5.68509e-05 0.000241009)
(0.999058 6.84429e-05 0.000270356)
(0.998796 7.8591e-05 0.000293904)
(0.99853 8.70427e-05 0.000312218)
(0.99826 9.39895e-05 0.000326475)
(0.997987 9.98685e-05 0.000337912)
(0.997712 0.000104971 0.000347305)
(0.997436 0.00010941 0.000355114)
(0.99716 0.000113251 0.000361679)
(0.996883 0.000116581 0.000367245)
(0.996606 0.000119493 0.000371974)
(0.996329 0.00012207 0.000376001)
(0.996052 0.000124364 0.000379467)
(0.995775 0.000126396 0.000382485)
(0.995498 0.00012818 0.000385125)
(0.995222 0.000129738 0.000387419)
(0.994945 0.000131108 0.000389397)
(0.994669 0.000132333 0.000391089)
(0.994393 0.000133441 0.000392531)
(0.994117 0.000134439 0.000393751)
(0.993842 0.000135321 0.000394777)
(0.993566 0.000136086 0.000395636)
(0.993291 0.000136745 0.000396353)
(0.993016 0.000137315 0.000396953)
(0.992741 0.000137816 0.000397453)
(0.992467 0.000138262 0.00039786)
(0.992192 0.000138664 0.000398177)
(0.991918 0.000139025 0.000398405)
(0.991644 0.000139346 0.000398549)
(0.991371 0.000139628 0.000398616)
(0.991097 0.00013987 0.000398618)
(0.990824 0.000140075 0.000398566)
(0.990551 0.000140245 0.000398474)
(0.990278 0.000140386 0.000398347)
(0.990005 0.000140501 0.000398191)
(0.989733 0.000140595 0.000398006)
(0.989461 0.000140671 0.000397792)
(0.989189 0.000140734 0.000397548)
(0.988917 0.000140785 0.000397273)
(0.988645 0.000140828 0.000396971)
(0.988374 0.000140861 0.000396646)
(0.988103 0.000140886 0.000396302)
(0.987832 0.000140901 0.000395945)
(0.987561 0.000140907 0.00039558)
(0.98729 0.000140903 0.00039521)
(0.98702 0.000140889 0.000394837)
(0.98675 0.000140867 0.000394459)
(0.98648 0.000140839 0.000394077)
(0.98621 0.000140805 0.000393689)
(0.985941 0.000140769 0.000393292)
(0.985671 0.000140731 0.000392886)
(0.985402 0.000140692 0.000392471)
(0.985133 0.000140652 0.000392047)
(0.984865 0.000140612 0.000391615)
(0.984596 0.000140571 0.000391176)
(0.984328 0.000140527 0.000390734)
(0.98406 0.00014048 0.00039029)
(0.983792 0.00014043 0.000389846)
(0.983524 0.000140376 0.000389402)
(0.983256 0.000140318 0.000388959)
(0.982989 0.000140257 0.000388517)
(0.982722 0.000140193 0.000388076)
(0.982455 0.000140127 0.000387636)
(0.982189 0.000140061 0.000387196)
(0.981922 0.000139995 0.000386755)
(0.981656 0.000139929 0.000386313)
(0.98139 0.000139866 0.000385871)
(0.981124 0.000139803 0.000385427)
(0.980858 0.000139742 0.000384982)
(0.980593 0.000139682 0.000384536)
(0.980328 0.000139622 0.000384091)
(0.980062 0.000139563 0.000383645)
(0.979798 0.000139503 0.000383199)
(0.979533 0.000139441 0.000382754)
(0.979268 0.000139379 0.000382309)
(0.979004 0.000139315 0.000381865)
(0.97874 0.00013925 0.000381421)
(0.978476 0.000139183 0.000380978)
(0.978213 0.000139115 0.000380535)
(0.977949 0.000139045 0.000380094)
(0.977686 0.000138976 0.000379652)
(0.977423 0.000138907 0.000379212)
(0.97716 0.000138839 0.000378774)
(0.976897 0.000138773 0.000378339)
(0.976635 0.000138711 0.000377909)
(0.976372 0.000138656 0.000377488)
(0.97611 0.00013861 0.000377081)
(0.975848 0.00013858 0.000376699)
(0.975586 0.000138573 0.00037636)
(0.975325 0.000138604 0.000376103)
(0.975063 0.000138686 0.000375955)
(0.9748 0.000138841 0.000376164)
(0.974537 0.000139071 0.000376466)
(0.974274 0.000139363 0.000379047)
(0.973996 0.00013974 0.000379238)
(0.973763 0.000139799 0.000395695)
(0.97334 0.00014144 0.000385472)
(0.999894 3.03857e-06 6.05214e-05)
(0.999727 9.71774e-06 0.000148817)
(0.999536 1.45672e-05 0.000203685)
(0.999301 1.61291e-05 0.000241002)
(0.999042 1.49611e-05 0.000270339)
(0.998776 1.20086e-05 0.000293878)
(0.998509 7.88665e-06 0.000312173)
(0.998238 3.05317e-06 0.000326397)
(0.997965 -2.08246e-06 0.000337798)
(0.99769 -7.21885e-06 0.000347171)
(0.997415 -1.21866e-05 0.000354974)
(0.997139 -1.69016e-05 0.00036153)
(0.996863 -2.13119e-05 0.000367074)
(0.996587 -2.53786e-05 0.000371771)
(0.99631 -2.90817e-05 0.000375768)
(0.996034 -3.24269e-05 0.000379213)
(0.995758 -3.54395e-05 0.00038222)
(0.995482 -3.81505e-05 0.000384853)
(0.995206 -4.05843e-05 0.000387142)
(0.99493 -4.27573e-05 0.000389113)
(0.994655 -4.46838e-05 0.000390802)
(0.994379 -4.63836e-05 0.000392247)
(0.994104 -4.7884e-05 0.000393476)
(0.993829 -4.92146e-05 0.000394512)
(0.993554 -5.04009e-05 0.000395379)
(0.993279 -5.14603e-05 0.000396101)
(0.993005 -5.24022e-05 0.000396701)
(0.99273 -5.32322e-05 0.000397198)
(0.992456 -5.39555e-05 0.000397602)
(0.992182 -5.45793e-05 0.000397919)
(0.991908 -5.51131e-05 0.000398153)
(0.991634 -5.55681e-05 0.000398307)
(0.991361 -5.59558e-05 0.00039839)
(0.991088 -5.62868e-05 0.000398412)
(0.990815 -5.657e-05 0.000398383)
(0.990542 -5.68124e-05 0.000398314)
(0.990269 -5.70189e-05 0.000398211)
(0.989997 -5.71933e-05 0.000398075)
(0.989724 -5.7338e-05 0.000397908)
(0.989452 -5.74551e-05 0.000397709)
(0.989181 -5.75462e-05 0.000397478)
(0.988909 -5.7613e-05 0.000397215)
(0.988637 -5.76571e-05 0.000396924)
(0.988366 -5.76802e-05 0.000396611)
(0.988095 -5.76845e-05 0.00039628)
(0.987824 -5.76722e-05 0.000395939)
(0.987554 -5.76455e-05 0.00039559)
(0.987283 -5.76067e-05 0.000395238)
(0.987013 -5.75577e-05 0.000394884)
(0.986743 -5.75e-05 0.000394527)
(0.986473 -5.74349e-05 0.000394165)
(0.986203 -5.73629e-05 0.000393797)
(0.985934 -5.72847e-05 0.000393421)
(0.985664 -5.72009e-05 0.000393035)
(0.985395 -5.7112e-05 0.000392639)
(0.985127 -5.70185e-05 0.000392234)
(0.984858 -5.6921e-05 0.000391822)
(0.984589 -5.68203e-05 0.000391404)
(0.984321 -5.67169e-05 0.000390981)
(0.984053 -5.66115e-05 0.000390557)
(0.983785 -5.65046e-05 0.000390132)
(0.983518 -5.63965e-05 0.000389707)
(0.98325 -5.62874e-05 0.000389282)
(0.982983 -5.61774e-05 0.000388858)
(0.982716 -5.60664e-05 0.000388434)
(0.982449 -5.59541e-05 0.000388009)
(0.982182 -5.58402e-05 0.000387584)
(0.981916 -5.57243e-05 0.000387157)
(0.981649 -5.56063e-05 0.00038673)
(0.981383 -5.5486e-05 0.000386301)
(0.981117 -5.53635e-05 0.000385872)
(0.980852 -5.52389e-05 0.000385443)
(0.980586 -5.51125e-05 0.000385014)
(0.980321 -5.49849e-05 0.000384585)
(0.980056 -5.48564e-05 0.000384157)
(0.979791 -5.47275e-05 0.00038373)
(0.979526 -5.45987e-05 0.000383304)
(0.979262 -5.44703e-05 0.000382879)
(0.978997 -5.43426e-05 0.000382453)
(0.978733 -5.4216e-05 0.000382029)
(0.978469 -5.40905e-05 0.000381604)
(0.978206 -5.39661e-05 0.000381179)
(0.977942 -5.38427e-05 0.000380755)
(0.977679 -5.37199e-05 0.00038033)
(0.977416 -5.35974e-05 0.000379905)
(0.977153 -5.34747e-05 0.000379482)
(0.97689 -5.33513e-05 0.000379062)
(0.976627 -5.32264e-05 0.000378645)
(0.976365 -5.30991e-05 0.000378238)
(0.976103 -5.2968e-05 0.000377844)
(0.975841 -5.28312e-05 0.000377476)
(0.975579 -5.26859e-05 0.00037715)
(0.975317 -5.25283e-05 0.000376907)
(0.975055 -5.23539e-05 0.000376772)
(0.974792 -5.2159e-05 0.000376995)
(0.974529 -5.19402e-05 0.000377312)
(0.974266 -5.17053e-05 0.000379907)
(0.973987 -5.14328e-05 0.000380111)
(0.973755 -5.12023e-05 0.00039659)
(0.973331 -5.08737e-05 0.00038639)
(0.999894 -3.03863e-06 6.05214e-05)
(0.999727 -9.71785e-06 0.000148817)
(0.999536 -1.45673e-05 0.000203685)
(0.999301 -1.61293e-05 0.000241002)
(0.999042 -1.49612e-05 0.000270339)
(0.998776 -1.20087e-05 0.000293878)
(0.998509 -7.88665e-06 0.000312172)
(0.998238 -3.0532e-06 0.000326396)
(0.997965 2.08221e-06 0.000337798)
(0.99769 7.21912e-06 0.000347172)
(0.997415 1.21876e-05 0.000354974)
(0.997139 1.69021e-05 0.000361529)
(0.996863 2.13114e-05 0.000367074)
(0.996587 2.53782e-05 0.000371773)
(0.99631 2.90822e-05 0.00037577)
(0.996034 3.24276e-05 0.000379213)
(0.995758 3.54398e-05 0.000382219)
(0.995482 3.81506e-05 0.000384852)
(0.995206 4.05846e-05 0.000387142)
(0.99493 4.27569e-05 0.000389114)
(0.994655 4.46819e-05 0.000390803)
(0.994379 4.63812e-05 0.000392247)
(0.994104 4.78834e-05 0.000393475)
(0.993829 4.92176e-05 0.000394511)
(0.993554 5.04068e-05 0.000395378)
(0.993279 5.14661e-05 0.000396101)
(0.993005 5.24047e-05 0.000396701)
(0.99273 5.323e-05 0.000397198)
(0.992456 5.39495e-05 0.000397602)
(0.992182 5.4572e-05 0.00039792)
(0.991908 5.51073e-05 0.000398154)
(0.991634 5.55654e-05 0.000398308)
(0.991361 5.59563e-05 0.000398392)
(0.991088 5.62894e-05 0.000398413)
(0.990815 5.65731e-05 0.000398385)
(0.990542 5.68149e-05 0.000398315)
(0.990269 5.70207e-05 0.00039821)
(0.989997 5.71948e-05 0.000398074)
(0.989724 5.73398e-05 0.000397906)
(0.989452 5.74575e-05 0.000397707)
(0.989181 5.75487e-05 0.000397476)
(0.988909 5.76148e-05 0.000397214)
(0.988637 5.76571e-05 0.000396924)
(0.988366 5.76781e-05 0.000396611)
(0.988095 5.76805e-05 0.000396282)
(0.987824 5.76671e-05 0.00039594)
(0.987554 5.76407e-05 0.000395592)
(0.987283 5.76034e-05 0.000395239)
(0.987013 5.75569e-05 0.000394884)
(0.986743 5.7502e-05 0.000394526)
(0.986473 5.74392e-05 0.000394164)
(0.986203 5.73689e-05 0.000393795)
(0.985934 5.72912e-05 0.000393419)
(0.985664 5.72066e-05 0.000393033)
(0.985395 5.71158e-05 0.000392638)
(0.985127 5.70196e-05 0.000392233)
(0.984858 5.69192e-05 0.000391822)
(0.984589 5.68157e-05 0.000391404)
(0.984321 5.67104e-05 0.000390983)
(0.984053 5.66042e-05 0.000390559)
(0.983785 5.64977e-05 0.000390134)
(0.983518 5.63913e-05 0.000389709)
(0.98325 5.62847e-05 0.000389284)
(0.982983 5.61776e-05 0.000388859)
(0.982716 5.60694e-05 0.000388435)
(0.982449 5.59593e-05 0.00038801)
(0.982182 5.58468e-05 0.000387584)
(0.981916 5.57313e-05 0.000387157)
(0.981649 5.56128e-05 0.000386729)
(0.981383 5.54912e-05 0.000386301)
(0.981117 5.53668e-05 0.000385872)
(0.980852 5.52401e-05 0.000385442)
(0.980586 5.51117e-05 0.000385013)
(0.980321 5.49822e-05 0.000384584)
(0.980056 5.48524e-05 0.000384156)
(0.979791 5.47227e-05 0.000383729)
(0.979526 5.45937e-05 0.000383303)
(0.979262 5.44657e-05 0.000382878)
(0.978997 5.43389e-05 0.000382453)
(0.978733 5.42135e-05 0.000382028)
(0.978469 5.40893e-05 0.000381604)
(0.978206 5.39661e-05 0.000381179)
(0.977942 5.38437e-05 0.000380755)
(0.977679 5.37216e-05 0.00038033)
(0.977416 5.35994e-05 0.000379906)
(0.977153 5.34768e-05 0.000379483)
(0.97689 5.33533e-05 0.000379062)
(0.976627 5.32281e-05 0.000378647)
(0.976365 5.31004e-05 0.000378239)
(0.976103 5.2969e-05 0.000377845)
(0.975841 5.28318e-05 0.000377477)
(0.975579 5.26861e-05 0.000377151)
(0.975317 5.25283e-05 0.000376908)
(0.975055 5.23539e-05 0.000376773)
(0.974792 5.21591e-05 0.000376996)
(0.974529 5.19407e-05 0.000377312)
(0.974266 5.17064e-05 0.000379907)
(0.973987 5.14347e-05 0.000380111)
(0.973755 5.12054e-05 0.00039659)
(0.973331 5.08788e-05 0.000386389)
(0.999894 -8.95352e-06 6.05213e-05)
(0.999728 -2.75692e-05 0.000148817)
(0.999542 -4.36321e-05 0.000203685)
(0.999313 -5.68511e-05 0.000241009)
(0.999058 -6.84431e-05 0.000270356)
(0.998796 -7.85915e-05 0.000293905)
(0.99853 -8.70432e-05 0.000312218)
(0.99826 -9.39892e-05 0.000326475)
(0.997987 -9.98677e-05 0.000337912)
(0.997712 -0.00010497 0.000347306)
(0.997436 -0.00010941 0.000355114)
(0.99716 -0.000113252 0.000361677)
(0.996883 -0.000116581 0.000367244)
(0.996606 -0.000119493 0.000371976)
(0.996329 -0.00012207 0.000376004)
(0.996052 -0.000124365 0.000379467)
(0.995775 -0.000126397 0.000382482)
(0.995498 -0.000128179 0.000385122)
(0.995222 -0.000129734 0.00038742)
(0.994945 -0.000131103 0.000389399)
(0.994669 -0.000132331 0.000391091)
(0.994393 -0.000133442 0.000392531)
(0.994117 -0.000134443 0.00039375)
(0.993842 -0.000135326 0.000394776)
(0.993566 -0.000136091 0.000395635)
(0.993291 -0.000136749 0.000396354)
(0.993016 -0.000137317 0.000396954)
(0.992741 -0.000137816 0.000397453)
(0.992467 -0.00013826 0.00039786)
(0.992192 -0.000138659 0.000398176)
(0.991918 -0.000139018 0.000398405)
(0.991644 -0.000139338 0.000398549)
(0.991371 -0.00013962 0.000398617)
(0.991097 -0.000139866 0.000398619)
(0.990824 -0.000140076 0.000398568)
(0.990551 -0.000140251 0.000398474)
(0.990278 -0.000140395 0.000398346)
(0.990005 -0.00014051 0.000398189)
(0.989733 -0.000140601 0.000398003)
(0.989461 -0.000140673 0.000397789)
(0.989189 -0.000140731 0.000397545)
(0.988917 -0.00014078 0.000397272)
(0.988645 -0.000140821 0.000396971)
(0.988374 -0.000140855 0.000396648)
(0.988103 -0.000140882 0.000396305)
(0.987832 -0.0001409 0.000395949)
(0.987561 -0.000140909 0.000395584)
(0.98729 -0.000140907 0.000395213)
(0.98702 -0.000140894 0.000394838)
(0.98675 -0.000140872 0.000394459)
(0.98648 -0.000140842 0.000394076)
(0.98621 -0.000140806 0.000393686)
(0.985941 -0.000140767 0.000393289)
(0.985671 -0.000140727 0.000392883)
(0.985402 -0.000140687 0.000392468)
(0.985133 -0.000140647 0.000392045)
(0.984865 -0.000140608 0.000391614)
(0.984596 -0.000140567 0.000391177)
(0.984328 -0.000140525 0.000390736)
(0.98406 -0.000140479 0.000390292)
(0.983792 -0.00014043 0.000389848)
(0.983524 -0.000140377 0.000389404)
(0.983256 -0.00014032 0.00038896)
(0.982989 -0.000140259 0.000388518)
(0.982722 -0.000140195 0.000388077)
(0.982455 -0.00014013 0.000387636)
(0.982189 -0.000140063 0.000387195)
(0.981922 -0.000139997 0.000386754)
(0.981656 -0.000139932 0.000386312)
(0.98139 -0.000139869 0.00038587)
(0.981124 -0.000139806 0.000385426)
(0.980858 -0.000139745 0.000384982)
(0.980593 -0.000139684 0.000384537)
(0.980328 -0.000139624 0.000384091)
(0.980062 -0.000139564 0.000383645)
(0.979798 -0.000139503 0.0003832)
(0.979533 -0.00013944 0.000382754)
(0.979268 -0.000139377 0.000382309)
(0.979004 -0.000139312 0.000381865)
(0.97874 -0.000139246 0.000381421)
(0.978476 -0.000139179 0.000380977)
(0.978213 -0.00013911 0.000380534)
(0.977949 -0.000139042 0.000380092)
(0.977686 -0.000138973 0.000379651)
(0.977423 -0.000138905 0.000379211)
(0.97716 -0.000138838 0.000378773)
(0.976897 -0.000138773 0.000378338)
(0.976635 -0.000138712 0.000377909)
(0.976372 -0.000138657 0.000377488)
(0.97611 -0.000138612 0.000377081)
(0.975848 -0.000138582 0.0003767)
(0.975586 -0.000138576 0.000376361)
(0.975325 -0.000138606 0.000376104)
(0.975063 -0.000138688 0.000375956)
(0.9748 -0.000138842 0.000376165)
(0.974537 -0.000139071 0.000376467)
(0.974274 -0.000139362 0.000379048)
(0.973996 -0.000139737 0.000379239)
(0.973763 -0.000139795 0.000395695)
(0.97334 -0.000141434 0.000385473)
(0.999894 -2.18423e-05 6.05211e-05)
(0.999728 -4.32541e-05 0.000148811)
(0.999543 -4.33764e-05 0.000203668)
(0.999312 -3.7265e-05 0.000240972)
(0.999056 -3.28844e-05 0.000270299)
(0.998794 -3.00594e-05 0.000293825)
(0.99853 -2.73672e-05 0.000312104)
(0.998263 -2.48029e-05 0.000326321)
(0.997992 -2.28236e-05 0.000337728)
(0.997719 -2.14954e-05 0.000347107)
(0.997445 -2.06176e-05 0.000354905)
(0.997171 -2.00286e-05 0.000361455)
(0.996896 -1.96564e-05 0.000367007)
(0.996621 -1.94539e-05 0.000371731)
(0.996346 -1.93763e-05 0.000375758)
(0.996071 -1.93891e-05 0.000379222)
(0.995796 -1.94632e-05 0.00038224)
(0.995521 -1.95673e-05 0.000384888)
(0.995246 -1.9679e-05 0.000387204)
(0.994972 -1.97965e-05 0.000389212)
(0.994697 -1.99326e-05 0.000390937)
(0.994423 -2.00958e-05 0.000392409)
(0.994149 -2.02801e-05 0.000393661)
(0.993875 -2.04715e-05 0.00039472)
(0.993601 -2.06594e-05 0.000395616)
(0.993328 -2.08422e-05 0.000396374)
(0.993054 -2.10243e-05 0.000397018)
(0.992781 -2.12095e-05 0.000397562)
(0.992508 -2.13979e-05 0.000398015)
(0.992235 -2.15866e-05 0.000398379)
(0.991963 -2.17721e-05 0.000398657)
(0.99169 -2.19528e-05 0.000398853)
(0.991418 -2.21294e-05 0.000398974)
(0.991146 -2.23038e-05 0.000399032)
(0.990875 -2.2478e-05 0.000399038)
(0.990603 -2.26536e-05 0.000399004)
(0.990332 -2.2831e-05 0.000398936)
(0.990061 -2.30105e-05 0.00039884)
(0.98979 -2.31917e-05 0.000398717)
(0.989519 -2.33747e-05 0.000398565)
(0.989249 -2.35594e-05 0.000398384)
(0.988979 -2.37459e-05 0.000398174)
(0.988709 -2.39339e-05 0.000397936)
(0.988439 -2.41225e-05 0.000397674)
(0.98817 -2.43108e-05 0.000397391)
(0.987901 -2.44975e-05 0.000397094)
(0.987632 -2.46812e-05 0.000396787)
(0.987363 -2.48611e-05 0.000396474)
(0.987094 -2.50369e-05 0.000396158)
(0.986826 -2.52089e-05 0.00039584)
(0.986558 -2.53782e-05 0.000395518)
(0.98629 -2.55461e-05 0.000395193)
(0.986023 -2.57142e-05 0.000394863)
(0.985755 -2.58837e-05 0.000394525)
(0.985488 -2.60557e-05 0.000394179)
(0.985221 -2.62303e-05 0.000393825)
(0.984955 -2.64076e-05 0.000393462)
(0.984688 -2.6587e-05 0.000393092)
(0.984422 -2.67676e-05 0.000392716)
(0.984156 -2.69488e-05 0.000392336)
(0.98389 -2.71296e-05 0.000391952)
(0.983625 -2.73096e-05 0.000391567)
(0.983359 -2.74884e-05 0.000391182)
(0.983094 -2.76658e-05 0.000390798)
(0.982829 -2.78419e-05 0.000390414)
(0.982565 -2.80167e-05 0.000390032)
(0.9823 -2.81906e-05 0.00038965)
(0.982036 -2.83637e-05 0.000389269)
(0.981772 -2.8536e-05 0.000388887)
(0.981509 -2.87075e-05 0.000388506)
(0.981245 -2.88784e-05 0.000388124)
(0.980982 -2.90484e-05 0.000387741)
(0.980719 -2.92176e-05 0.000387357)
(0.980456 -2.9386e-05 0.000386973)
(0.980194 -2.95536e-05 0.000386588)
(0.979931 -2.97208e-05 0.000386203)
(0.979669 -2.98876e-05 0.000385817)
(0.979407 -3.00545e-05 0.000385431)
(0.979146 -3.02217e-05 0.000385045)
(0.978884 -3.03896e-05 0.000384659)
(0.978623 -3.05582e-05 0.000384273)
(0.978362 -3.0728e-05 0.000383887)
(0.978101 -3.08988e-05 0.000383502)
(0.977841 -3.1071e-05 0.000383117)
(0.977581 -3.12445e-05 0.000382734)
(0.977321 -3.14198e-05 0.000382352)
(0.977061 -3.15976e-05 0.000381973)
(0.976801 -3.17791e-05 0.000381599)
(0.976542 -3.19671e-05 0.000381233)
(0.976282 -3.21655e-05 0.000380882)
(0.976023 -3.23821e-05 0.000380555)
(0.975764 -3.26279e-05 0.00038027)
(0.975506 -3.29235e-05 0.000380068)
(0.975247 -3.32918e-05 0.000379973)
(0.974987 -3.37747e-05 0.000380236)
(0.974727 -3.44118e-05 0.00038059)
(0.974467 -3.50604e-05 0.00038323)
(0.974192 -3.60814e-05 0.000383464)
(0.973961 -3.44411e-05 0.000400053)
(0.973545 -3.57088e-05 0.000389734)
(0.999941 -7.64454e-05 6.05252e-05)
(0.999919 -0.000174209 0.000148841)
(0.999881 -0.000218 0.000203745)
(0.999789 -0.000237596 0.000241107)
(0.999672 -0.00024985 0.000270493)
(0.999554 -0.000257535 0.00029409)
(0.999439 -0.00026067 0.000312447)
(0.999322 -0.000260677 0.00032673)
(0.999201 -0.000259219 0.000338193)
(0.99908 -0.000257172 0.000347637)
(0.998958 -0.000254841 0.000355504)
(0.998836 -0.0002524 0.00036211)
(0.998714 -0.000249998 0.000367706)
(0.998591 -0.000247713 0.000372473)
(0.998469 -0.000245574 0.000376546)
(0.998346 -0.000243603 0.00038005)
(0.998223 -0.000241822 0.000383095)
(0.998099 -0.000240236 0.000385759)
(0.997976 -0.000238823 0.000388088)
(0.997853 -0.00023756 0.00039011)
(0.997729 -0.000236435 0.000391853)
(0.997605 -0.000235437 0.000393345)
(0.997481 -0.000234557 0.000394616)
(0.997357 -0.000233782 0.000395691)
(0.997232 -0.000233101 0.000396598)
(0.997108 -0.000232508 0.00039736)
(0.996983 -0.000231996 0.000398)
(0.996858 -0.00023156 0.000398534)
(0.996733 -0.000231186 0.000398973)
(0.996608 -0.000230865 0.000399322)