/*--------------------------------*- C++ -*----------------------------------*\
| =========                 |                                                 |
| \\      /  F ield         | OpenFOAM: The Open Source CFD Toolbox           |
|  \\    /   O peration     | Version:  v1806                                 |
|   \\  /    A nd           | Web:      www.OpenFOAM.com                      |
|    \\/     M anipulation  |                                                 |
\*---------------------------------------------------------------------------*/
FoamFile
{
    version     2.0;
    format      ascii;
    class       volVectorField;
    location    "10";
    object      U;
}
// * * * * * * * * * * * * * * * * * * * * * * * * * * * * * * * * * * * * * //

dimensions      [0 1 -1 0 0 0 0];


internalField   nonuniform List<vector> 
10000
(
(0.999764 4.54744e-05 4.54744e-05)
(0.999605 0.000104372 0.000104372)
(0.999332 0.000135648 0.000135648)
(0.99903 0.000149567 0.000149567)
(0.998842 0.000149711 0.000149711)
(0.998564 0.000146498 0.000146498)
(0.998087 0.000140148 0.000140148)
(0.998011 0.000136076 0.000136076)
(0.99765 0.00013603 0.00013603)
(0.997112 0.000137002 0.000137002)
(0.997063 0.000141039 0.000141039)
(0.996748 0.000144527 0.000144527)
(0.996124 0.000150061 0.000150061)
(0.996041 0.000148721 0.000148721)
(0.995896 0.000152918 0.000152918)
(0.995108 0.000153397 0.000153397)
(0.99501 0.000149588 0.000149588)
(0.994982 0.000150885 0.000150885)
(0.994203 0.000151753 0.000151753)
(0.993897 0.000150953 0.000150953)
(0.994057 0.000148022 0.000148022)
(0.993408 0.000154496 0.000154496)
(0.992784 0.000152228 0.000152228)
(0.993082 0.000149389 0.000149389)
(0.992662 0.000155912 0.000155912)
(0.991785 0.000154752 0.000154752)
(0.991905 0.00015048 0.00015048)
(0.991888 0.000151571 0.000151571)
(0.99094 0.000158442 0.000158442)
(0.990601 0.000152827 0.000152827)
(0.990981 0.000148773 0.000148773)
(0.99031 0.0001582 0.0001582)
(0.989478 0.000156632 0.000156632)
(0.98979 0.000150959 0.000150959)
(0.989709 0.000154346 0.000154346)
(0.98865 0.00015967 0.00015967)
(0.988325 0.00015382 0.00015382)
(0.988767 0.000149027 0.000149027)
(0.988184 0.000159595 0.000159595)
(0.987184 0.000160545 0.000160545)
(0.987405 0.000150743 0.000150743)
(0.987626 0.000152115 0.000152115)
(0.986636 0.000160453 0.000160453)
(0.985859 0.000159591 0.000159591)
(0.986269 0.000150753 0.000150753)
(0.98631 0.000154685 0.000154685)
(0.985227 0.000162461 0.000162461)
(0.984707 0.000155532 0.000155532)
(0.985205 0.000149702 0.000149702)
(0.985005 0.000156855 0.000156855)
(0.983783 0.00016518 0.00016518)
(0.98323 0.000158829 0.000158829)
(0.983907 0.000147371 0.000147371)
(0.984078 0.000152209 0.000152209)
(0.982859 0.00016331 0.00016331)
(0.981774 0.000162681 0.000162681)
(0.982021 0.000154088 0.000154088)
(0.98263 0.000150742 0.000150742)
(0.982191 0.00015764 0.00015764)
(0.981025 0.000161671 0.000161671)
(0.980478 0.000156434 0.000156434)
(0.980718 0.000152786 0.000152786)
(0.980796 0.00015533 0.00015533)
(0.980257 0.000160028 0.000160028)
(0.979557 0.000160416 0.000160416)
(0.979244 0.000155236 0.000155236)
(0.979173 0.000152467 0.000152467)
(0.978945 0.000153887 0.000153887)
(0.978528 0.00015637 0.00015637)
(0.978123 0.000158659 0.000158659)
(0.977818 0.000158687 0.000158687)
(0.977563 0.000157405 0.000157405)
(0.977244 0.000155791 0.000155791)
(0.976902 0.000152813 0.000152813)
(0.976584 0.000151035 0.000151035)
(0.976281 0.000151661 0.000151661)
(0.97598 0.000153882 0.000153882)
(0.975667 0.000157693 0.000157693)
(0.975334 0.000160334 0.000160334)
(0.975007 0.000160184 0.000160184)
(0.974682 0.0001581 0.0001581)
(0.974355 0.00015382 0.00015382)
(0.974051 0.000148907 0.000148907)
(0.973745 0.000145376 0.000145376)
(0.973451 0.000144068 0.000144068)
(0.973155 0.000146439 0.000146439)
(0.972855 0.0001525 0.0001525)
(0.972536 0.000159634 0.000159634)
(0.972214 0.000166997 0.000166997)
(0.971864 0.000171503 0.000171503)
(0.971513 0.000173673 0.000173673)
(0.971152 0.000170327 0.000170327)
(0.97081 0.000164984 0.000164984)
(0.970471 0.000151589 0.000151589)
(0.970185 0.000139699 0.000139699)
(0.969889 0.000118935 0.000118935)
(0.969679 0.000106754 0.000106754)
(0.969432 8.32222e-05 8.32222e-05)
(0.969323 7.60244e-05 7.60244e-05)
(0.969111 5.12647e-05 5.12647e-05)
(0.999863 5.54871e-05 4.53408e-05)
(0.999846 0.000128181 0.000104133)
(0.999727 0.00016731 0.000135368)
(0.999594 0.000184015 0.000149456)
(0.99959 0.000182967 0.000149593)
(0.999502 0.000176277 0.000146608)
(0.99923 0.000164326 0.000140525)
(0.999353 0.000155323 0.000136168)
(0.999203 0.000151645 0.000136197)
(0.998863 0.000149491 0.000136905)
(0.999021 0.000153209 0.000141064)
(0.998902 0.000158185 0.000144461)
(0.998477 0.000164859 0.00015014)
(0.99859 0.000164213 0.00014884)
(0.998642 0.000171107 0.000152867)
(0.998056 0.000170311 0.000153657)
(0.998149 0.000164223 0.000149588)
(0.998328 0.000165998 0.000151087)
(0.997744 0.000164712 0.000151768)
(0.997638 0.000160506 0.000151089)
(0.997999 0.000158603 0.000148224)
(0.99755 0.000166773 0.000154488)
(0.997123 0.000161197 0.000152558)
(0.997615 0.000159585 0.000149318)
(0.997404 0.000169755 0.000156097)
(0.996719 0.000164951 0.000155105)
(0.997033 0.000158157 0.000150629)
(0.997222 0.000162691 0.000151705)
(0.996473 0.000168738 0.000158441)
(0.996328 0.000157825 0.000153327)
(0.996906 0.000157028 0.000149036)
(0.996442 0.000170516 0.000158212)
(0.9958 0.000163021 0.000156896)
(0.996305 0.000155505 0.000151056)
(0.996434 0.000164812 0.000154626)
(0.995573 0.000169245 0.000159993)
(0.995437 0.000156081 0.000154191)
(0.996077 0.00015398 0.000149151)
(0.995702 0.000170965 0.000159387)
(0.994897 0.000166378 0.000160922)
(0.995306 0.000151633 0.000151326)
(0.995733 0.000159143 0.000152402)
(0.994947 0.00017068 0.000160454)
(0.994358 0.00016224 0.00015954)
(0.99496 0.000150564 0.000151066)
(0.99521 0.000162928 0.000155017)
(0.99433 0.000171852 0.000162923)
(0.993993 0.00015598 0.000155991)
(0.994683 0.000149037 0.000149601)
(0.994695 0.000164625 0.00015658)
(0.993676 0.0001751 0.000165259)
(0.993309 0.000159765 0.000159568)
(0.994176 0.000144622 0.000148286)
(0.994552 0.000157599 0.000152437)
(0.993539 0.000173637 0.00016298)
(0.992644 0.00016702 0.000162307)
(0.993079 0.000151283 0.000154182)
(0.993888 0.000150907 0.000151433)
(0.993656 0.000166 0.000158529)
(0.992689 0.000169984 0.000162365)
(0.992328 0.000158068 0.000156562)
(0.992758 0.000151247 0.000152339)
(0.993038 0.000157263 0.000154838)
(0.992704 0.000166477 0.000160136)
(0.992203 0.000166423 0.000161432)
(0.992082 0.000158131 0.000156774)
(0.992202 0.000154859 0.000153606)
(0.992168 0.000157156 0.000154046)
(0.991946 0.000160149 0.000155706)
(0.99174 0.000162086 0.000157901)
(0.991635 0.000161962 0.000158679)
(0.99158 0.000162066 0.000158551)
(0.991459 0.000161774 0.000157906)
(0.99131 0.000158675 0.000155156)
(0.991181 0.000156245 0.000152563)
(0.991067 0.000155802 0.00015176)
(0.990959 0.000157495 0.0001526)
(0.990845 0.000161825 0.000155688)
(0.990715 0.000165038 0.000158959)
(0.990594 0.000166061 0.00016054)
(0.990472 0.000165253 0.000160471)
(0.990341 0.000161909 0.000157704)
(0.990225 0.000157049 0.000153162)
(0.990101 0.000152475 0.000148761)
(0.989985 0.000149019 0.000145499)
(0.989872 0.000149918 0.000145023)
(0.98976 0.000155257 0.000148518)
(0.989642 0.000162434 0.000153883)
(0.989531 0.000170291 0.000161313)
(0.989402 0.000175657 0.00016719)
(0.989276 0.000179533 0.000172561)
(0.989139 0.000178486 0.000172427)
(0.989007 0.000175578 0.000171752)
(0.988869 0.000163123 0.00016142)
(0.988754 0.000151708 0.000153801)
(0.988622 0.000129585 0.00013391)
(0.98853 0.000117297 0.000124224)
(0.98841 9.19749e-05 9.88562e-05)
(0.988359 8.49986e-05 9.26943e-05)
(0.988252 5.75426e-05 6.45707e-05)
(0.999863 1.82201e-05 4.53089e-05)
(0.999834 4.72696e-05 0.000104066)
(0.999703 6.78529e-05 0.000135329)
(0.999562 8.13669e-05 0.0001495)
(0.999551 8.74556e-05 0.000149654)
(0.999459 8.89387e-05 0.000146718)
(0.999186 8.53059e-05 0.000140641)
(0.999312 8.02907e-05 0.000136195)
(0.999164 7.57127e-05 0.000136185)
(0.998827 7.11281e-05 0.000136863)
(0.99899 7.0748e-05 0.00014099)
(0.998873 7.23265e-05 0.000144389)
(0.998448 7.65121e-05 0.000150107)
(0.998563 7.91523e-05 0.000148793)
(0.998613 8.53755e-05 0.000152872)
(0.998022 8.61423e-05 0.000153651)
(0.998118 8.4468e-05 0.000149522)
(0.998298 8.51604e-05 0.000151036)
(0.997711 8.12965e-05 0.000151726)
(0.997608 7.80179e-05 0.000151026)
(0.997975 7.77645e-05 0.000148143)
(0.997522 8.07259e-05 0.000154471)
(0.997096 7.82188e-05 0.000152463)
(0.997595 8.08746e-05 0.000149196)
(0.99738 8.62553e-05 0.000156102)
(0.99669 8.11899e-05 0.000155066)
(0.997013 7.97729e-05 0.000150478)
(0.997204 8.25694e-05 0.000151615)
(0.996446 8.14404e-05 0.00015846)
(0.996307 7.60859e-05 0.000153193)
(0.996895 8.02939e-05 0.000148854)
(0.996424 8.61949e-05 0.000158223)
(0.995777 7.8405e-05 0.000156819)
(0.996295 7.82519e-05 0.000150846)
(0.996426 8.52544e-05 0.000154527)
(0.995554 8.24225e-05 0.000160024)
(0.995422 7.49139e-05 0.000154039)
(0.996077 7.93725e-05 0.000148877)
(0.995695 8.78053e-05 0.000159381)
(0.99488 7.96281e-05 0.000160911)
(0.995302 7.41862e-05 0.000151115)
(0.995739 8.37899e-05 0.000152207)
(0.99494 8.6382e-05 0.000160448)
(0.994347 7.71519e-05 0.0001595)
(0.994966 7.49503e-05 0.00015079)
(0.995222 8.59134e-05 0.000154892)
(0.994327 8.62907e-05 0.000162953)
(0.993989 7.38315e-05 0.000155846)
(0.994698 7.50174e-05 0.000149319)
(0.994714 8.74493e-05 0.00015642)
(0.993679 8.8547e-05 0.000165356)
(0.993309 7.55753e-05 0.000159523)
(0.994195 7.09112e-05 0.000147984)
(0.994582 8.35818e-05 0.000152209)
(0.993557 9.07505e-05 0.000162915)
(0.99265 8.15119e-05 0.000162306)
(0.993095 7.20842e-05 0.00015403)
(0.993922 7.66081e-05 0.000151214)
(0.993691 8.76536e-05 0.000158461)
(0.992711 8.67967e-05 0.000162289)
(0.992349 7.72003e-05 0.000156391)
(0.99279 7.44305e-05 0.00015211)
(0.993079 8.06627e-05 0.000154622)
(0.992743 8.59543e-05 0.000160088)
(0.992237 8.36568e-05 0.000161435)
(0.992119 7.81785e-05 0.000156687)
(0.992247 7.80132e-05 0.000153371)
(0.992216 8.05913e-05 0.000153703)
(0.991995 8.20345e-05 0.000155423)
(0.991789 8.16991e-05 0.000157745)
(0.991687 8.10652e-05 0.000158583)
(0.991636 8.14906e-05 0.000158476)
(0.991517 8.18077e-05 0.00015779)
(0.99137 8.04742e-05 0.000154927)
(0.991244 7.94428e-05 0.000152281)
(0.991133 7.9328e-05 0.000151448)
(0.991028 8.02525e-05 0.000152214)
(0.990915 8.22614e-05 0.000155341)
(0.990788 8.30464e-05 0.000158775)
(0.990669 8.31338e-05 0.000160624)
(0.99055 8.23945e-05 0.000160707)
(0.990423 8.13932e-05 0.000157762)
(0.990309 7.96257e-05 0.000152969)
(0.990188 7.78705e-05 0.000148472)
(0.990075 7.60926e-05 0.000145177)
(0.989965 7.69257e-05 0.000144582)
(0.989857 7.98181e-05 0.000147871)
(0.989741 8.34218e-05 0.000153232)
(0.989632 8.64304e-05 0.000161)
(0.989506 8.75838e-05 0.000167354)
(0.989383 8.83629e-05 0.000172974)
(0.989249 8.72395e-05 0.000172933)
(0.989119 8.59422e-05 0.000172229)
(0.988981 7.94599e-05 0.000161978)
(0.988867 7.34095e-05 0.000154367)
(0.988735 6.16638e-05 0.00013443)
(0.988646 5.56149e-05 0.000124462)
(0.988524 4.37764e-05 9.88305e-05)
(0.988473 4.13119e-05 9.24698e-05)
(0.988362 2.85727e-05 6.42055e-05)
(0.999862 1.14514e-05 4.52994e-05)
(0.999831 3.21651e-05 0.000104051)
(0.999695 4.89901e-05 0.000135323)
(0.999549 6.2532e-05 0.000149575)
(0.999532 7.09985e-05 0.000149729)
(0.999435 7.62363e-05 0.000146736)
(0.999156 7.67821e-05 0.000140639)
(0.999279 7.46399e-05 0.00013617)
(0.99913 7.1587e-05 0.000136183)
(0.998794 6.73219e-05 0.000136816)
(0.998958 6.5412e-05 0.000140961)
(0.998844 6.48294e-05 0.000144324)
(0.998422 6.81024e-05 0.000150087)
(0.998537 6.99581e-05 0.000148758)
(0.998587 7.56236e-05 0.000152832)
(0.997993 7.86428e-05 0.000153625)
(0.998087 7.84288e-05 0.00014948)
(0.998265 7.86945e-05 0.000151047)
(0.997677 7.62866e-05 0.000151652)
(0.997576 7.41292e-05 0.000151002)
(0.997943 7.17666e-05 0.00014809)
(0.997493 7.42298e-05 0.000154415)
(0.997067 7.45036e-05 0.000152435)
(0.997567 7.51418e-05 0.000149129)
(0.997349 7.91193e-05 0.000156085)
(0.996659 7.78541e-05 0.00015494)
(0.996981 7.64035e-05 0.000150465)
(0.997171 7.56361e-05 0.000151595)
(0.996414 7.66724e-05 0.000158366)
(0.996277 7.52426e-05 0.00015313)
(0.996866 7.48289e-05 0.000148774)
(0.996393 7.88496e-05 0.000158232)
(0.995745 7.73915e-05 0.000156687)
(0.996266 7.64974e-05 0.000150772)
(0.996394 7.75774e-05 0.000154541)
(0.99552 7.7858e-05 0.000159916)
(0.995392 7.62755e-05 0.000153941)
(0.996049 7.57373e-05 0.000148785)
(0.995662 7.93606e-05 0.000159379)
(0.994846 7.83373e-05 0.000160811)
(0.995273 7.61475e-05 0.000150923)
(0.99571 7.79608e-05 0.00015218)
(0.994906 7.88702e-05 0.000160388)
(0.994314 7.79188e-05 0.000159349)
(0.994938 7.67497e-05 0.00015061)
(0.995192 7.90958e-05 0.000154791)
(0.994291 7.9762e-05 0.000162909)
(0.993956 7.6147e-05 0.000155641)
(0.994673 7.67064e-05 0.000149108)
(0.994686 8.02868e-05 0.000156333)
(0.993643 8.1011e-05 0.000165254)
(0.993273 7.73407e-05 0.000159335)
(0.994167 7.5155e-05 0.000147712)
(0.994556 7.90911e-05 0.000152034)
(0.993523 8.15456e-05 0.000162839)
(0.992613 7.86059e-05 0.000162115)
(0.993064 7.61284e-05 0.000153758)
(0.993896 7.78449e-05 0.00015097)
(0.993661 8.13646e-05 0.000158282)
(0.992675 8.01329e-05 0.000162168)
(0.992314 7.6464e-05 0.000156148)
(0.992761 7.6452e-05 0.000151816)
(0.993051 7.94572e-05 0.00015439)
(0.992711 8.08503e-05 0.00015986)
(0.992203 7.95991e-05 0.000161225)
(0.992086 7.74708e-05 0.000156445)
(0.992217 7.77192e-05 0.000153141)
(0.992186 7.84119e-05 0.000153534)
(0.991963 7.84746e-05 0.000155218)
(0.991756 7.84126e-05 0.000157551)
(0.991655 7.88102e-05 0.000158395)
(0.991604 7.92255e-05 0.000158242)
(0.991485 7.92715e-05 0.000157535)
(0.991337 7.81132e-05 0.000154692)
(0.991212 7.68633e-05 0.000152143)
(0.991101 7.64809e-05 0.000151344)
(0.990997 7.66658e-05 0.000152039)
(0.990884 7.80818e-05 0.000155059)
(0.990756 7.90013e-05 0.000158436)
(0.990636 7.96651e-05 0.000160347)
(0.990517 7.94489e-05 0.000160442)
(0.99039 7.91033e-05 0.000157399)
(0.990275 7.74698e-05 0.000152569)
(0.990155 7.57785e-05 0.000148198)
(0.990043 7.36873e-05 0.000145132)
(0.989936 7.33386e-05 0.000144573)
(0.989828 7.48298e-05 0.000147682)
(0.989712 7.73141e-05 0.000152884)
(0.989599 8.03736e-05 0.000160649)
(0.989472 8.19339e-05 0.000167046)
(0.989346 8.39025e-05 0.000172644)
(0.989213 8.34225e-05 0.000172398)
(0.98908 8.42943e-05 0.000171549)
(0.988942 7.96049e-05 0.000161302)
(0.988825 7.65056e-05 0.000153848)
(0.988697 6.57893e-05 0.00013409)
(0.988609 6.13459e-05 0.000124162)
(0.988494 4.91891e-05 9.85476e-05)
(0.988444 4.77421e-05 9.21603e-05)
(0.988339 3.45554e-05 6.40489e-05)
(0.999862 3.26931e-06 4.52963e-05)
(0.999829 8.72192e-06 0.000104041)
(0.99969 1.27884e-05 0.000135347)
(0.999541 1.56981e-05 0.000149607)
(0.999521 1.67009e-05 0.000149753)
(0.999422 1.72441e-05 0.000146779)
(0.99914 1.55406e-05 0.000140663)
(0.999263 1.37141e-05 0.000136176)
(0.999113 1.13813e-05 0.000136152)
(0.998778 8.77649e-06 0.000136828)
(0.998944 6.8572e-06 0.00014097)
(0.998832 6.06153e-06 0.000144308)
(0.99841 6.62165e-06 0.000150054)
(0.998527 6.03685e-06 0.000148712)
(0.998578 8.82876e-06 0.000152843)
(0.997982 9.14983e-06 0.000153628)
(0.998074 8.81157e-06 0.000149469)
(0.998253 8.5421e-06 0.000151011)
(0.997662 8.06986e-06 0.000151651)
(0.99756 5.81103e-06 0.000151006)
(0.997931 4.29397e-06 0.000148046)
(0.997482 6.13874e-06 0.000154403)
(0.997053 5.08742e-06 0.000152422)
(0.997556 4.67292e-06 0.00014908)
(0.99734 6.70112e-06 0.000156048)
(0.996644 6.80943e-06 0.000154961)
(0.996967 4.44571e-06 0.000150445)
(0.997161 4.12646e-06 0.000151503)
(0.996402 5.88566e-06 0.000158361)
(0.996262 3.97618e-06 0.000153152)
(0.996855 2.66837e-06 0.000148706)
(0.996383 5.19124e-06 0.000158159)
(0.995731 5.4961e-06 0.000156689)
(0.996251 2.98852e-06 0.000150758)
(0.996384 2.62288e-06 0.000154441)
(0.995509 5.03091e-06 0.000159868)
(0.995376 3.65664e-06 0.000153962)
(0.996036 1.41361e-06 0.000148717)
(0.995653 3.32746e-06 0.000159283)
(0.994833 4.52272e-06 0.000160783)
(0.995257 2.58419e-06 0.00015092)
(0.995699 1.11302e-06 0.000152114)
(0.994897 3.00368e-06 0.000160289)
(0.994301 3.92049e-06 0.000159338)
(0.994923 1.57063e-06 0.000150585)
(0.995181 1.17994e-06 0.000154715)
(0.99428 2.74104e-06 0.000162835)
(0.993943 2.75957e-06 0.000155602)
(0.994659 1.39593e-06 0.000149101)
(0.994675 1.08953e-06 0.000156263)
(0.993632 2.60884e-06 0.000165179)
(0.993259 2.37408e-06 0.0001593)
(0.994153 8.55499e-07 0.000147652)
(0.994545 8.31832e-07 0.000151989)
(0.993512 1.80708e-06 0.000162776)
(0.992601 2.21219e-06 0.000162067)
(0.99305 1.51742e-06 0.000153738)
(0.993883 8.98549e-07 0.000150901)
(0.99365 1.40736e-06 0.000158237)
(0.992663 1.33631e-06 0.000162098)
(0.992302 1.24628e-06 0.000156051)
(0.992749 1.37871e-06 0.000151791)
(0.993039 1.56679e-06 0.000154365)
(0.992698 1.41316e-06 0.000159838)
(0.99219 1.30764e-06 0.000161148)
(0.992074 1.13105e-06 0.000156336)
(0.992205 1.5663e-06 0.000153081)
(0.992173 1.48616e-06 0.000153466)
(0.991951 1.46628e-06 0.000155138)
(0.991744 1.54577e-06 0.000157513)
(0.991642 1.67217e-06 0.000158373)
(0.991591 1.72357e-06 0.000158212)
(0.991472 1.75288e-06 0.000157481)
(0.991324 1.72143e-06 0.000154595)
(0.9912 1.79041e-06 0.000152027)
(0.991089 2.04483e-06 0.000151253)
(0.990985 1.89572e-06 0.000151951)
(0.990871 2.43968e-06 0.000154997)
(0.990742 2.43699e-06 0.000158416)
(0.990622 2.73512e-06 0.000160366)
(0.990504 2.28869e-06 0.00016051)
(0.990377 2.33834e-06 0.000157412)
(0.990263 2.0819e-06 0.000152484)
(0.990143 2.53621e-06 0.000148038)
(0.990031 2.24123e-06 0.000144981)
(0.989924 2.07439e-06 0.00014446)
(0.989815 2.06823e-06 0.000147554)
(0.989699 2.58471e-06 0.000152699)
(0.989585 3.53448e-06 0.000160503)
(0.989456 3.34295e-06 0.000167066)
(0.98933 2.80889e-06 0.000172815)
(0.989197 1.76926e-06 0.000172584)
(0.989064 2.10847e-06 0.000171614)
(0.988927 2.14772e-06 0.000161307)
(0.988811 2.14954e-06 0.000153871)
(0.988684 6.2436e-07 0.000134208)
(0.988598 -5.3626e-07 0.000124228)
(0.988486 -1.15569e-06 9.85057e-05)
(0.988437 -3.95091e-07 9.19734e-05)
(0.988335 2.92094e-07 6.38352e-05)
(0.999862 -3.22702e-06 4.52958e-05)
(0.999829 -8.63926e-06 0.000104044)
(0.99969 -1.29304e-05 0.00013533)
(0.999541 -1.54595e-05 0.000149599)
(0.999521 -1.70682e-05 0.000149761)
(0.999422 -1.68651e-05 0.00014677)
(0.99914 -1.58784e-05 0.000140643)
(0.999263 -1.34861e-05 0.000136163)
(0.999113 -1.15219e-05 0.000136173)
(0.998778 -8.72478e-06 0.00013683)
(0.998944 -6.72292e-06 0.000140952)
(0.998832 -6.46668e-06 0.000144297)
(0.99841 -5.94397e-06 0.000150072)
(0.998527 -6.87652e-06 0.000148729)
(0.998578 -8.0179e-06 0.000152833)
(0.997981 -9.81044e-06 0.00015361)
(0.998074 -8.38319e-06 0.000149486)
(0.998253 -8.82048e-06 0.000151022)
(0.997662 -7.97442e-06 0.000151651)
(0.99756 -5.67216e-06 0.000150988)
(0.997931 -4.73064e-06 0.000148047)
(0.997482 -5.60078e-06 0.00015441)
(0.997053 -5.50458e-06 0.000152417)
(0.997556 -4.43545e-06 0.000149088)
(0.997339 -6.82608e-06 0.000156033)
(0.996644 -6.69311e-06 0.000154966)
(0.996967 -4.51373e-06 0.000150442)
(0.997161 -4.13797e-06 0.000151508)
(0.996402 -5.72216e-06 0.000158366)
(0.996262 -4.23742e-06 0.000153143)
(0.996855 -2.50788e-06 0.000148709)
(0.996383 -5.28768e-06 0.000158155)
(0.995731 -5.40328e-06 0.000156699)
(0.996251 -3.01255e-06 0.00015076)
(0.996384 -2.73954e-06 0.000154433)
(0.995509 -4.75967e-06 0.000159872)
(0.995376 -3.91444e-06 0.000153951)
(0.996036 -1.22574e-06 0.000148729)
(0.995653 -3.3473e-06 0.000159287)
(0.994833 -4.65131e-06 0.000160784)
(0.995257 -2.53245e-06 0.000150918)
(0.995699 -1.19788e-06 0.000152102)
(0.994896 -2.84474e-06 0.000160295)
(0.994301 -3.91633e-06 0.000159332)
(0.994923 -1.63425e-06 0.000150592)
(0.995181 -1.16089e-06 0.00015473)
(0.99428 -2.85955e-06 0.00016283)
(0.993943 -2.64428e-06 0.000155598)
(0.994658 -1.42576e-06 0.000149086)
(0.994675 -1.06356e-06 0.00015626)
(0.993632 -2.55758e-06 0.000165188)
(0.993259 -2.57098e-06 0.000159308)
(0.994153 -7.54014e-07 0.000147664)
(0.994545 -9.04317e-07 0.000151975)
(0.993512 -1.80507e-06 0.000162758)
(0.992601 -2.12894e-06 0.00016207)
(0.99305 -1.47225e-06 0.000153741)
(0.993883 -8.84524e-07 0.000150916)
(0.993649 -1.47304e-06 0.000158247)
(0.992663 -1.64482e-06 0.000162111)
(0.992302 -1.06024e-06 0.000156041)
(0.992749 -1.21995e-06 0.000151752)
(0.993039 -1.30994e-06 0.000154352)
(0.992698 -1.68925e-06 0.00015986)
(0.99219 -1.46486e-06 0.000161173)
(0.992074 -1.09951e-06 0.000156353)
(0.992205 -1.27115e-06 0.000153097)
(0.992173 -1.5115e-06 0.000153481)
(0.991951 -1.37065e-06 0.000155125)
(0.991744 -1.56597e-06 0.000157463)
(0.991642 -1.55833e-06 0.00015832)
(0.991591 -1.82944e-06 0.000158215)
(0.991473 -2.18416e-06 0.000157546)
(0.991324 -1.79813e-06 0.000154679)
(0.9912 -1.72714e-06 0.000152032)
(0.991089 -1.63086e-06 0.000151195)
(0.990985 -2.07598e-06 0.000151955)
(0.990872 -2.31181e-06 0.00015504)
(0.990742 -2.65655e-06 0.000158372)
(0.990622 -2.28807e-06 0.000160206)
(0.990503 -2.85063e-06 0.000160427)
(0.990377 -2.66884e-06 0.000157489)
(0.990263 -2.59444e-06 0.000152541)
(0.990144 -1.83208e-06 0.000147953)
(0.99003 -1.39549e-06 0.00014486)
(0.989924 -1.85926e-06 0.000144492)
(0.989815 -2.44664e-06 0.000147689)
(0.9897 -2.9026e-06 0.0001527)
(0.989585 -2.19312e-06 0.000160379)
(0.989457 -2.63711e-06 0.000166972)
(0.989329 -2.67986e-06 0.000172871)
(0.989197 -4.03764e-06 0.000172699)
(0.989065 -3.18769e-06 0.000171632)
(0.988928 -2.62448e-06 0.000161233)
(0.988811 -7.28254e-07 0.000153803)
(0.988683 -6.45503e-07 0.000134258)
(0.988597 -4.13969e-07 0.000124326)
(0.988485 -5.43608e-07 9.85758e-05)
(0.988438 3.15686e-07 9.19292e-05)
(0.988335 1.84358e-06 6.37697e-05)
(0.999862 -1.14141e-05 4.52982e-05)
(0.999831 -3.20958e-05 0.00010406)
(0.999694 -4.91249e-05 0.000135332)
(0.99955 -6.23252e-05 0.000149598)
(0.999531 -7.12957e-05 0.000149727)
(0.999436 -7.59455e-05 0.000146759)
(0.999156 -7.70858e-05 0.000140637)
(0.999279 -7.44279e-05 0.000136196)
(0.99913 -7.17177e-05 0.000136162)
(0.998794 -6.729e-05 0.000136808)
(0.998958 -6.53037e-05 0.000140967)
(0.998845 -6.51722e-05 0.00014432)
(0.998421 -6.75037e-05 0.000150085)
(0.998537 -7.06742e-05 0.000148735)
(0.998587 -7.49352e-05 0.00015286)
(0.997993 -7.91998e-05 0.000153611)
(0.998087 -7.80257e-05 0.000149499)
(0.998265 -7.89578e-05 0.000151038)
(0.997677 -7.62076e-05 0.00015165)
(0.997575 -7.39981e-05 0.000151008)
(0.997943 -7.21438e-05 0.000148092)
(0.997493 -7.37854e-05 0.00015442)
(0.997067 -7.48638e-05 0.000152411)
(0.997567 -7.49154e-05 0.000149156)
(0.997349 -7.92436e-05 0.000156072)
(0.996659 -7.77378e-05 0.000154944)
(0.996981 -7.6476e-05 0.000150466)
(0.997172 -7.56517e-05 0.000151587)
(0.996414 -7.65166e-05 0.000158381)
(0.996277 -7.54675e-05 0.000153116)
(0.996866 -7.47003e-05 0.000148786)
(0.996393 -7.89571e-05 0.000158221)
(0.995745 -7.72916e-05 0.000156694)
(0.996266 -7.65267e-05 0.000150771)
(0.996394 -7.76887e-05 0.00015453)
(0.99552 -7.761e-05 0.000159925)
(0.995392 -7.65171e-05 0.000153931)
(0.996049 -7.55718e-05 0.000148795)
(0.995662 -7.93906e-05 0.000159382)
(0.994846 -7.84205e-05 0.000160811)
(0.995273 -7.60892e-05 0.000150918)
(0.99571 -7.80709e-05 0.000152172)
(0.994906 -7.87728e-05 0.000160398)
(0.994314 -7.79209e-05 0.000159342)
(0.994938 -7.6757e-05 0.000150607)
(0.995192 -7.90455e-05 0.000154805)
(0.994291 -7.98567e-05 0.000162907)
(0.993957 -7.60874e-05 0.000155647)
(0.994672 -7.6777e-05 0.000149105)
(0.994686 -8.02838e-05 0.000156333)
(0.993643 -8.09359e-05 0.000165241)
(0.993273 -7.74372e-05 0.000159326)
(0.994166 -7.50482e-05 0.000147721)
(0.994556 -7.91946e-05 0.000152031)
(0.993523 -8.15986e-05 0.000162843)
(0.992614 -7.85561e-05 0.000162135)
(0.993064 -7.60685e-05 0.000153758)
(0.993896 -7.78167e-05 0.000150936)
(0.993661 -8.1372e-05 0.000158262)
(0.992675 -8.04141e-05 0.000162204)
(0.992315 -7.63349e-05 0.000156176)
(0.992761 -7.63387e-05 0.00015182)
(0.993051 -7.92078e-05 0.000154372)
(0.99271 -8.09925e-05 0.000159865)
(0.992203 -7.97276e-05 0.000161204)
(0.992086 -7.74599e-05 0.000156401)
(0.992217 -7.74596e-05 0.000153149)
(0.992185 -7.84481e-05 0.000153587)
(0.991964 -7.84047e-05 0.000155278)
(0.991756 -7.85515e-05 0.000157561)
(0.991655 -7.87708e-05 0.000158339)
(0.991603 -7.92071e-05 0.000158207)
(0.991485 -7.9439e-05 0.000157562)
(0.991337 -7.80618e-05 0.000154747)
(0.991212 -7.69781e-05 0.000152099)
(0.991101 -7.63249e-05 0.000151251)
(0.990997 -7.67569e-05 0.000152074)
(0.990885 -7.77631e-05 0.000155187)
(0.990756 -7.92339e-05 0.000158453)
(0.990636 -7.95636e-05 0.000160191)
(0.990516 -7.99866e-05 0.000160362)
(0.99039 -7.89666e-05 0.000157497)
(0.990275 -7.75385e-05 0.000152624)
(0.990156 -7.54557e-05 0.000147984)
(0.990042 -7.36694e-05 0.00014487)
(0.989936 -7.33935e-05 0.000144553)
(0.989827 -7.47134e-05 0.000147842)
(0.989714 -7.71491e-05 0.000152838)
(0.9896 -7.94435e-05 0.000160373)
(0.989472 -8.18816e-05 0.000166841)
(0.989345 -8.37799e-05 0.000172761)
(0.989212 -8.47269e-05 0.000172639)
(0.989081 -8.44713e-05 0.000171568)
(0.988943 -7.98301e-05 0.000161103)
(0.988826 -7.55266e-05 0.00015363)
(0.988694 -6.58701e-05 0.000134171)
(0.988607 -6.1974e-05 0.000124353)
(0.988493 -5.02978e-05 9.86919e-05)
(0.988446 -4.7836e-05 9.19994e-05)
(0.98834 -3.28469e-05 6.38194e-05)
(0.999862 -1.81877e-05 4.53087e-05)
(0.999835 -4.7209e-05 0.000104072)
(0.999703 -6.79456e-05 0.000135335)
(0.999563 -8.11902e-05 0.000149513)
(0.99955 -8.76936e-05 0.000149653)
(0.99946 -8.8685e-05 0.00014674)
(0.999185 -8.55475e-05 0.000140623)
(0.999312 -8.0094e-05 0.000136214)
(0.999164 -7.58685e-05 0.000136172)
(0.998828 -7.10954e-05 0.000136856)
(0.99899 -7.06282e-05 0.000140996)
(0.998873 -7.26371e-05 0.000144374)
(0.998448 -7.60542e-05 0.000150111)
(0.998563 -7.97036e-05 0.000148777)
(0.998613 -8.48058e-05 0.000152915)
(0.998022 -8.66279e-05 0.000153603)
(0.998118 -8.4107e-05 0.000149544)
(0.998298 -8.53778e-05 0.000151036)
(0.997711 -8.12644e-05 0.000151733)
(0.997608 -7.78782e-05 0.000151024)
(0.997975 -7.80808e-05 0.000148126)
(0.997522 -8.03745e-05 0.000154489)
(0.997096 -7.85289e-05 0.000152442)
(0.997596 -8.06364e-05 0.000149231)
(0.99738 -8.63823e-05 0.000156067)
(0.996691 -8.11127e-05 0.000155063)
(0.997012 -7.97803e-05 0.0001505)
(0.997205 -8.26074e-05 0.000151607)
(0.996446 -8.13198e-05 0.000158472)
(0.996307 -7.62707e-05 0.000153165)
(0.996895 -8.01638e-05 0.000148873)
(0.996424 -8.62909e-05 0.000158224)
(0.995777 -7.83544e-05 0.00015682)
(0.996295 -7.82396e-05 0.000150852)
(0.996426 -8.53456e-05 0.0001545)
(0.995554 -8.22439e-05 0.000160041)
(0.995422 -7.51039e-05 0.000154042)
(0.996077 -7.91991e-05 0.00014889)
(0.995694 -8.78326e-05 0.000159387)
(0.99488 -7.97256e-05 0.00016089)
(0.995301 -7.413e-05 0.000151117)
(0.995739 -8.38578e-05 0.00015221)
(0.99494 -8.63277e-05 0.000160475)
(0.994347 -7.71548e-05 0.000159502)
(0.994966 -7.49398e-05 0.000150757)
(0.995222 -8.58515e-05 0.00015489)
(0.994326 -8.63887e-05 0.00016294)
(0.99399 -7.37891e-05 0.000155875)
(0.994698 -7.50512e-05 0.000149345)
(0.994715 -8.74452e-05 0.000156421)
(0.993679 -8.85225e-05 0.000165325)
(0.993309 -7.5659e-05 0.000159483)
(0.994194 -7.08126e-05 0.00014799)
(0.994582 -8.36574e-05 0.000152236)
(0.993557 -9.07848e-05 0.000162939)
(0.992651 -8.14773e-05 0.000162336)
(0.993095 -7.20663e-05 0.000154014)
(0.993922 -7.66082e-05 0.000151162)
(0.99369 -8.76886e-05 0.000158423)
(0.992711 -8.6972e-05 0.000162344)
(0.99235 -7.70563e-05 0.000156448)
(0.99279 -7.4306e-05 0.000152128)
(0.993079 -8.04168e-05 0.000154581)
(0.992742 -8.61129e-05 0.000160055)
(0.992238 -8.38625e-05 0.000161397)
(0.992119 -7.82695e-05 0.000156632)
(0.992247 -7.78338e-05 0.000153392)
(0.992215 -8.05086e-05 0.000153791)
(0.991996 -8.19048e-05 0.000155508)
(0.991788 -8.17916e-05 0.000157788)
(0.991687 -8.10833e-05 0.000158517)
(0.991635 -8.14946e-05 0.000158392)
(0.991518 -8.18454e-05 0.000157728)
(0.99137 -8.04452e-05 0.000154928)
(0.991244 -7.9693e-05 0.000152333)
(0.991133 -7.93448e-05 0.00015147)
(0.991028 -8.02501e-05 0.000152296)
(0.990916 -8.18263e-05 0.000155449)
(0.990787 -8.32243e-05 0.000158759)
(0.990669 -8.32383e-05 0.000160472)
(0.990549 -8.2875e-05 0.000160559)
(0.990424 -8.11185e-05 0.00015772)
(0.990308 -7.9411e-05 0.000152947)
(0.990189 -7.77605e-05 0.00014833)
(0.990073 -7.6518e-05 0.000145152)
(0.989966 -7.72325e-05 0.000144797)
(0.989856 -7.94983e-05 0.000148187)
(0.989743 -8.29614e-05 0.000153269)
(0.989632 -8.58526e-05 0.000160761)
(0.989505 -8.81916e-05 0.000167119)
(0.989381 -8.86484e-05 0.000173018)
(0.989248 -8.80501e-05 0.000173014)
(0.989122 -8.57148e-05 0.000172014)
(0.988983 -7.96126e-05 0.000161483)
(0.988868 -7.31835e-05 0.000153886)
(0.988732 -6.20903e-05 0.000134405)
(0.988645 -5.61286e-05 0.000124652)
(0.988523 -4.43487e-05 9.90228e-05)
(0.988478 -4.13018e-05 9.22736e-05)
(0.988363 -2.73204e-05 6.39529e-05)
(0.999862 -5.54651e-05 4.53347e-05)
(0.999847 -0.00012815 0.000104148)
(0.999726 -0.000167358 0.000135351)
(0.999595 -0.000183922 0.00014946)
(0.999589 -0.0001831 0.000149592)
(0.999503 -0.000176136 0.000146631)
(0.999229 -0.00016448 0.000140485)
(0.999354 -0.000155202 0.000136185)
(0.999203 -0.000151735 0.000136202)
(0.998864 -0.000149495 0.0001369)
(0.99902 -0.000153112 0.000141062)
(0.998902 -0.000158378 0.000144446)
(0.998477 -0.000164581 0.00015016)
(0.99859 -0.000164529 0.00014883)
(0.998642 -0.000170749 0.000152898)
(0.998055 -0.000170605 0.000153604)
(0.998149 -0.00016401 0.000149626)
(0.998328 -0.000166096 0.000151098)
(0.997745 -0.000164733 0.000151759)
(0.997637 -0.000160413 0.000151077)
(0.997999 -0.000158786 0.00014822)
(0.99755 -0.000166567 0.000154516)
(0.997123 -0.000161402 0.000152534)
(0.997615 -0.000159442 0.000149349)
(0.997404 -0.000169796 0.000156052)
(0.99672 -0.000164927 0.000155104)
(0.997033 -0.000158168 0.000150665)
(0.997223 -0.000162698 0.000151705)
(0.996472 -0.000168693 0.000158439)
(0.996328 -0.000157909 0.000153288)
(0.996906 -0.000156966 0.000149056)