Particle_Number, Age, Distance_Traveled
1, 9.97, 10.0093
2, 9.97, 10.0089
3, 9.97, 10.0093
4, 9.97, 10.0089
5, 9.97, 10.0085
6, 9.97, 10.0089
7, 9.97, 10.0093
8, 9.97, 10.0089
9, 9.97, 10.0093
