Particle_Number, Age, Distance_Traveled
1, 9.88931, 10
2, 9.88931, 10
3, 9.95851, 10
4, 9.88939, 10
5, 10.1355, 10
6, 9.96062, 10
7, 9.88931, 10
8, 10.1346, 10
9, 10.1356, 10
10, 9.88818, 10
11, 9.95952, 10
12, 9.95851, 10
13, 10.3193, 10
14, 10.1356, 10
15, 9.96053, 10
16, 9.95952, 10
17, 10.1356, 10
18, 9.95952, 10
19, 9.95851, 10
20, 9.96053, 10
